                         Program Version 4.1.x  -  STABLE  -
|  1> ! RHF DLPNO-CCSD(T) cc-pVDZ RIJK cc-pVTZ/JK cc-pVDZ/C
|  2> ! KDIIS SOSCF TightSCF TightPNO
|  3>
|  4> %pal nprocs 4 end
|  5>
|  6> %maxcore 8000
|  7>
|  8> %scf maxiter 300
|  9>      shift shift 0.2 erroff 0.1 end
| 10> end
| 11>
| 12> * xyzfile 0 1 1_2_ethanediol_g__g_plus_a.xyz
| 13>
| 14>
| 15>                          ****END OF INPUT****

CARTESIAN COORDINATES (ANGSTROEM)
---------------------------------
  C     -0.686720    0.603120   -0.269290
  C      0.731440    0.568760    0.274080
  O     -1.341150   -0.576420    0.216730
  O      1.450410   -0.565280   -0.192740
  H     -1.201110    1.509630    0.082350
  H     -0.661640    0.607060   -1.367390
  H      1.280340    1.452200   -0.066150
  H      0.697810    0.585740    1.373980
  H     -2.171180   -0.708270   -0.256710
  H      0.913300   -1.343990    0.013250

 Total Charge           Charge          ....    0
 Multiplicity           Mult            ....    1
 Number of Electrons    NEL             ....   34
 Basis Dimension        Dim             ....   86

ORBITAL ENERGIES
----------------

  NO   OCC          E(Eh)            E(eV)
   0   2.0000     -20.563654      -559.5655
   1   2.0000     -20.544167      -559.0352
   2   2.0000     -11.284580      -307.0690
   3   2.0000     -11.276016      -306.8360
   4   2.0000      -1.367935       -37.2234
   5   2.0000      -1.338119       -36.4121
   6   2.0000      -0.997894       -27.1541
   7   2.0000      -0.834908       -22.7190
   8   2.0000      -0.716155       -19.4876
   9   2.0000      -0.664707       -18.0876
  10   2.0000      -0.641063       -17.4442
  11   2.0000      -0.596649       -16.2356
  12   2.0000      -0.563409       -15.3311
  13   2.0000      -0.525331       -14.2950
  14   2.0000      -0.489586       -13.3223
  15   2.0000      -0.453961       -12.3529
  16   2.0000      -0.432725       -11.7750
  17   0.0000       0.176382         4.7996
  18   0.0000       0.210395         5.7252
  19   0.0000       0.230383         6.2690
  20   0.0000       0.252026         6.8580
  21   0.0000       0.255153         6.9431

MULLIKEN ATOMIC CHARGES
-----------------------
   0 C :    0.153203
   1 C :    0.199744
   2 O :   -0.406243
   3 O :   -0.400454
   4 H :    0.020278
   5 H :    0.028015
   6 H :    0.032554
   7 H :    0.026438
   8 H :    0.172254
   9 H :    0.174211
Sum of atomic charges:   -0.0000000

LOEWDIN ATOMIC CHARGES
----------------------
   0 C :    0.009721
   1 C :    0.012505
   2 O :   -0.092976
   3 O :   -0.082765
   4 H :    0.010798
   5 H :    0.010456
   6 H :    0.021951
   7 H :    0.011458
   8 H :    0.050741
   9 H :    0.048111

  Mayer bond orders larger than 0.1
B(  0-C ,  1-C ) :   1.0551 B(  0-C ,  2-O ) :   0.9818 B(  0-C ,  4-H ) :   0.9667
B(  0-C ,  5-H ) :   0.9653 B(  1-C ,  3-O ) :   0.9954 B(  1-C ,  6-H ) :   0.9733
B(  1-C ,  7-H ) :   0.9664 B(  2-O ,  8-H ) :   0.9966 B(  3-O ,  9-H ) :   0.9921

E(0)                                       ...   -228.951402955
E(0)                                       ...   -228.951402955
E(CORR)(strong-pairs)                      ...     -0.699426558
E(CORR)(weak-pairs)                        ...     -0.000156127
E(CORR)(corrected)                         ...     -0.699582684
E(TOT)                                     ...   -229.650985639
E(CCSD(T))                                 ...   -229.667268540
FINAL SINGLE POINT ENERGY      -229.667268539516

DIPOLE MOMENT
-------------
                                X             Y             Z
Electronic contribution:      0.25909      -1.76457       0.02453
Nuclear contribution   :     -1.17358       2.14436      -0.22663
                        -----------------------------------------
Total Dipole Moment    :     -0.91449       0.37979      -0.20210
                        -----------------------------------------
Magnitude (a.u.)       :      1.01063
Magnitude (Debye)      :      2.56882

Rotational constants in cm-1:     0.510871     0.185007     0.152861
Rotational constants in MHz : 15315.527392  5546.378912  4582.660120

                             ****ORCA TERMINATED NORMALLY****
TOTAL RUN TIME: 0 days 0 hours 0 minutes 52 seconds 627 msec
