                         Program Version 4.1.x  -  STABLE  -
|  1> ! RHF DLPNO-CCSD(T) cc-pVDZ RIJK cc-pVTZ/JK cc-pVDZ/C
|  2> ! KDIIS SOSCF TightSCF TightPNO
|  3>
|  4> %pal nprocs 4 end
|  5>
|  6> %maxcore 8000
|  7>
|  8> %scf maxiter 300
|  9>      shift shift 0.2 erroff 0.1 end
| 10> end
| 11>
| 12> * xyzfile 0 1 1_2_difluoroethane_g.xyz
| 13>
| 14>
| 15>                          ****END OF INPUT****

CARTESIAN COORDINATES (ANGSTROEM)
---------------------------------
  C      0.682310    0.510750   -0.319990
  F      1.460080   -0.544510    0.172190
  C     -0.682300    0.510750    0.319990
  F     -1.460090   -0.544510   -0.172190
  H      0.606950    0.390070   -1.405270
  H      1.203390    1.446010   -0.082970
  H     -0.606940    0.390100    1.405270
  H     -1.203380    1.446010    0.082970

 Total Charge           Charge          ....    0
 Multiplicity           Mult            ....    1
 Number of Electrons    NEL             ....   34
 Basis Dimension        Dim             ....   76

ORBITAL ENERGIES
----------------

  NO   OCC          E(Eh)            E(eV)
   0   2.0000     -26.279689      -715.1067
   1   2.0000     -26.279687      -715.1066
   2   2.0000     -11.328395      -308.2613
   3   2.0000     -11.327721      -308.2430
   4   2.0000      -1.591396       -43.3041
   5   2.0000      -1.581160       -43.0256
   6   2.0000      -1.048039       -28.5186
   7   2.0000      -0.877468       -23.8771
   8   2.0000      -0.723975       -19.7004
   9   2.0000      -0.722636       -19.6639
  10   2.0000      -0.693701       -18.8766
  11   2.0000      -0.663773       -18.0622
  12   2.0000      -0.658394       -17.9158
  13   2.0000      -0.612813       -16.6755
  14   2.0000      -0.540411       -14.7053
  15   2.0000      -0.529414       -14.4061
  16   2.0000      -0.509847       -13.8736
  17   0.0000       0.178973         4.8701
  18   0.0000       0.215110         5.8534
  19   0.0000       0.240551         6.5457
  20   0.0000       0.245340         6.6761
  21   0.0000       0.283661         7.7188

MULLIKEN ATOMIC CHARGES
-----------------------
   0 C :    0.271711
   1 F :   -0.358537
   2 C :    0.271712
   3 F :   -0.358543
   4 H :    0.052292
   5 H :    0.034537
   6 H :    0.052292
   7 H :    0.034536
Sum of atomic charges:   -0.0000000

LOEWDIN ATOMIC CHARGES
----------------------
   0 C :    0.063729
   1 F :   -0.114274
   2 C :    0.063735
   3 F :   -0.114283
   4 H :    0.026652
   5 H :    0.023895
   6 H :    0.026651
   7 H :    0.023895

  Mayer bond orders larger than 0.1
B(  0-C ,  1-F ) :   0.9056 B(  0-C ,  2-C ) :   1.0604 B(  0-C ,  4-H ) :   0.9673
B(  0-C ,  5-H ) :   0.9676 B(  2-C ,  3-F ) :   0.9055 B(  2-C ,  6-H ) :   0.9673
B(  2-C ,  7-H ) :   0.9676

E(0)                                       ...   -276.938588119
E(0)                                       ...   -276.938588119
E(CORR)(strong-pairs)                      ...     -0.683565735
E(CORR)(weak-pairs)                        ...     -0.000130012
E(CORR)(corrected)                         ...     -0.683695747
E(TOT)                                     ...   -277.622283865
E(CCSD(T))                                 ...   -277.635866072
FINAL SINGLE POINT ENERGY      -277.635866072008

DIPOLE MOMENT
-------------
                                X             Y             Z
Electronic contribution:     -0.00001      -3.35812       0.00001
Nuclear contribution   :      0.00003       4.58988       0.00000
                        -----------------------------------------
Total Dipole Moment    :      0.00002       1.23176       0.00001
                        -----------------------------------------
Magnitude (a.u.)       :      1.23176
Magnitude (Debye)      :      3.13089

Rotational constants in cm-1:     0.576649     0.162989     0.143313
Rotational constants in MHz : 17287.492313  4886.278108  4296.401278

                             ****ORCA TERMINATED NORMALLY****
TOTAL RUN TIME: 0 days 0 hours 1 minutes 12 seconds 985 msec
