                         Program Version 4.1.x  -  STABLE  -
|  1> ! RHF DLPNO-CCSD(T) cc-pVDZ RIJK cc-pVTZ/JK cc-pVDZ/C
|  2> ! KDIIS SOSCF TightSCF TightPNO
|  3>
|  4> %pal nprocs 4 end
|  5>
|  6> %maxcore 8000
|  7>
|  8> %scf maxiter 300
|  9>      shift shift 0.2 erroff 0.1 end
| 10> end
| 11>
| 12> * xyzfile 0 1 1_2_difluoroethane_a.xyz
| 13>
| 14>
| 15>                          ****END OF INPUT****

CARTESIAN COORDINATES (ANGSTROEM)
---------------------------------
  C      0.561440   -0.512600    0.000020
  F      1.779850    0.182880   -0.000020
  C     -0.561450    0.512610    0.000020
  F     -1.779850   -0.182900   -0.000020
  H      0.527740   -1.139600    0.895620
  H      0.527700   -1.139660   -0.895540
  H     -0.527760    1.139620    0.895620
  H     -0.527710    1.139680   -0.895530

 Total Charge           Charge          ....    0
 Multiplicity           Mult            ....    1
 Number of Electrons    NEL             ....   34
 Basis Dimension        Dim             ....   76

ORBITAL ENERGIES
----------------

  NO   OCC          E(Eh)            E(eV)
   0   2.0000     -26.286970      -715.3048
   1   2.0000     -26.286969      -715.3048
   2   2.0000     -11.328342      -308.2599
   3   2.0000     -11.327709      -308.2426
   4   2.0000      -1.595026       -43.4029
   5   2.0000      -1.589729       -43.2587
   6   2.0000      -1.041483       -28.3402
   7   2.0000      -0.882130       -24.0040
   8   2.0000      -0.731896       -19.9159
   9   2.0000      -0.712932       -19.3999
  10   2.0000      -0.702386       -19.1129
  11   2.0000      -0.678586       -18.4653
  12   2.0000      -0.649945       -17.6859
  13   2.0000      -0.618261       -16.8237
  14   2.0000      -0.563426       -15.3316
  15   2.0000      -0.511686       -13.9237
  16   2.0000      -0.511175       -13.9098
  17   0.0000       0.185201         5.0396
  18   0.0000       0.210183         5.7194
  19   0.0000       0.220783         6.0078
  20   0.0000       0.249320         6.7843
  21   0.0000       0.276873         7.5341

MULLIKEN ATOMIC CHARGES
-----------------------
   0 C :    0.265875
   1 F :   -0.364510
   2 C :    0.265871
   3 F :   -0.364513
   4 H :    0.049318
   5 H :    0.049320
   6 H :    0.049319
   7 H :    0.049320
Sum of atomic charges:   -0.0000000

LOEWDIN ATOMIC CHARGES
----------------------
   0 C :    0.071471
   1 F :   -0.116905
   2 C :    0.071475
   3 F :   -0.116910
   4 H :    0.022717
   5 H :    0.022718
   6 H :    0.022718
   7 H :    0.022717

  Mayer bond orders larger than 0.1
B(  0-C ,  1-F ) :   0.8947 B(  0-C ,  2-C ) :   1.0582 B(  0-C ,  4-H ) :   0.9695
B(  0-C ,  5-H ) :   0.9695 B(  2-C ,  3-F ) :   0.8947 B(  2-C ,  6-H ) :   0.9695
B(  2-C ,  7-H ) :   0.9695

E(0)                                       ...   -276.938958598
E(0)                                       ...   -276.938958598
E(CORR)(strong-pairs)                      ...     -0.682943549
E(CORR)(weak-pairs)                        ...     -0.000167189
E(CORR)(corrected)                         ...     -0.683110738
E(TOT)                                     ...   -277.622069336
E(CCSD(T))                                 ...   -277.635593126
FINAL SINGLE POINT ENERGY      -277.635593126267

DIPOLE MOMENT
-------------
                                X             Y             Z
Electronic contribution:      0.00002      -0.00004      -0.00015
Nuclear contribution   :     -0.00002       0.00006       0.00020
                        -----------------------------------------
Total Dipole Moment    :     -0.00000       0.00002       0.00005
                        -----------------------------------------
Magnitude (a.u.)       :      0.00005
Magnitude (Debye)      :      0.00013

Rotational constants in cm-1:     1.055272     0.127348     0.118815
Rotational constants in MHz : 31636.259478  3817.809937  3561.993660

                             ****ORCA TERMINATED NORMALLY****
TOTAL RUN TIME: 0 days 0 hours 1 minutes 12 seconds 644 msec
