                         Program Version 4.1.x  -  STABLE  -
|  1> ! RHF DLPNO-CCSD(T) cc-pVDZ RIJK cc-pVTZ/JK cc-pVDZ/C
|  2> ! KDIIS SOSCF TightSCF TightPNO
|  3>
|  4> %pal nprocs 4 end
|  5>
|  6> %maxcore 8000
|  7>
|  8> %scf maxiter 300
|  9>      shift shift 0.2 erroff 0.1 end
| 10> end
| 11>
| 12> * xyzfile 0 1 1_2_ethanediol_a_a_a.xyz
| 13>
| 14>
| 15>                          ****END OF INPUT****

CARTESIAN COORDINATES (ANGSTROEM)
---------------------------------
  C     -0.574610    0.497900    0.000080
  O     -1.784380   -0.260910   -0.000010
  C      0.574610   -0.497890   -0.000010
  O      1.784390    0.260890   -0.000110
  H     -0.501530    1.136820    0.891020
  H     -0.501490    1.136990   -0.890740
  H      0.501550   -1.136910    0.890860
  H      0.501430   -1.136890   -0.890890
  H     -2.537550    0.341860   -0.000170
  H      2.537550   -0.341880    0.000540

 Total Charge           Charge          ....    0
 Multiplicity           Mult            ....    1
 Number of Electrons    NEL             ....   34
 Basis Dimension        Dim             ....   86

ORBITAL ENERGIES
----------------

  NO   OCC          E(Eh)            E(eV)
   0   2.0000     -20.553649      -559.2932
   1   2.0000     -20.553648      -559.2932
   2   2.0000     -11.276945      -306.8613
   3   2.0000     -11.276313      -306.8441
   4   2.0000      -1.358920       -36.9781
   5   2.0000      -1.345959       -36.6254
   6   2.0000      -0.993445       -27.0330
   7   2.0000      -0.826340       -22.4859
   8   2.0000      -0.711009       -19.3476
   9   2.0000      -0.662062       -18.0156
  10   2.0000      -0.658680       -17.9236
  11   2.0000      -0.572193       -15.5702
  12   2.0000      -0.571106       -15.5406
  13   2.0000      -0.529108       -14.3978
  14   2.0000      -0.475065       -12.9272
  15   2.0000      -0.448914       -12.2156
  16   2.0000      -0.436362       -11.8740
  17   0.0000       0.183000         4.9797
  18   0.0000       0.189793         5.1645
  19   0.0000       0.240790         6.5522
  20   0.0000       0.242539         6.5998
  21   0.0000       0.249876         6.7995

MULLIKEN ATOMIC CHARGES
-----------------------
   0 C :    0.173790
   1 O :   -0.396679
   2 C :    0.173792
   3 O :   -0.396672
   4 H :    0.026726
   5 H :    0.026734
   6 H :    0.026725
   7 H :    0.026732
   8 H :    0.169428
   9 H :    0.169425
Sum of atomic charges:    0.0000000

LOEWDIN ATOMIC CHARGES
----------------------
   0 C :    0.018800
   1 O :   -0.087373
   2 C :    0.018795
   3 O :   -0.087364
   4 H :    0.009349
   5 H :    0.009353
   6 H :    0.009350
   7 H :    0.009351
   8 H :    0.049872
   9 H :    0.049867

  Mayer bond orders larger than 0.1
B(  0-C ,  1-O ) :   0.9967 B(  0-C ,  2-C ) :   1.0618 B(  0-C ,  4-H ) :   0.9670
B(  0-C ,  5-H ) :   0.9670 B(  1-O ,  8-H ) :   0.9973 B(  2-C ,  3-O ) :   0.9967
B(  2-C ,  6-H ) :   0.9670 B(  2-C ,  7-H ) :   0.9670 B(  3-O ,  9-H ) :   0.9973

E(0)                                       ...   -228.948084676
E(0)                                       ...   -228.948084676
E(CORR)(strong-pairs)                      ...     -0.697908504
E(CORR)(weak-pairs)                        ...     -0.000151975
E(CORR)(corrected)                         ...     -0.698060479
E(TOT)                                     ...   -229.646145155
E(CCSD(T))                                 ...   -229.662176401
FINAL SINGLE POINT ENERGY      -229.662176401363

DIPOLE MOMENT
-------------
                                X             Y             Z
Electronic contribution:      0.00004       0.00000      -0.00021
Nuclear contribution   :     -0.00005       0.00001       0.00062
                        -----------------------------------------
Total Dipole Moment    :     -0.00000       0.00001       0.00041
                        -----------------------------------------
Magnitude (a.u.)       :      0.00041
Magnitude (Debye)      :      0.00104

Rotational constants in cm-1:     1.013257     0.132578     0.122699
Rotational constants in MHz : 30376.687862  3974.584438  3678.436014

                             ****ORCA TERMINATED NORMALLY****
TOTAL RUN TIME: 0 days 0 hours 0 minutes 51 seconds 831 msec
