                         Program Version 4.1.x  -  STABLE  -
|  1> ! RHF DLPNO-CCSD(T) cc-pVDZ RIJK cc-pVTZ/JK cc-pVDZ/C
|  2> ! KDIIS SOSCF TightSCF TightPNO
|  3>
|  4> %pal nprocs 4 end
|  5>
|  6> %maxcore 8000
|  7>
|  8> %scf maxiter 300
|  9>      shift shift 0.2 erroff 0.1 end
| 10> end
| 11>
| 12> * xyzfile 0 1 1_2_dichloroethane_g.xyz
| 13>
| 14>
| 15>                          ****END OF INPUT****

CARTESIAN COORDINATES (ANGSTROEM)
---------------------------------
  C     -0.654040    0.894590    0.382330
  Cl    -1.747090   -0.471010   -0.080930
  C      0.654040    0.894590   -0.382330
  Cl     1.747100   -0.471000    0.080930
  H     -0.489600    0.822810    1.458040
  H     -1.196370    1.816730    0.158270
  H      0.489600    0.822820   -1.458040
  H      1.196360    1.816730   -0.158270

 Total Charge           Charge          ....    0
 Multiplicity           Mult            ....    1
 Number of Electrons    NEL             ....   50
 Basis Dimension        Dim             ....   84

ORBITAL ENERGIES
----------------

  NO   OCC          E(Eh)            E(eV)
   0   2.0000    -104.825047     -2852.4345
   1   2.0000    -104.825046     -2852.4345
   2   2.0000     -11.321445      -308.0722
   3   2.0000     -11.320807      -308.0548
   4   2.0000     -10.551662      -287.1253
   5   2.0000     -10.551659      -287.1252
   6   2.0000      -8.019161      -218.2125
   7   2.0000      -8.019161      -218.2125
   8   2.0000      -8.015824      -218.1217
   9   2.0000      -8.015823      -218.1216
  10   2.0000      -8.015737      -218.1193
  11   2.0000      -8.015736      -218.1193
  12   2.0000      -1.168443       -31.7950
  13   2.0000      -1.108349       -30.1597
  14   2.0000      -0.986026       -26.8311
  15   2.0000      -0.845748       -23.0140
  16   2.0000      -0.666469       -18.1355
  17   2.0000      -0.651757       -17.7352
  18   2.0000      -0.600113       -16.3299
  19   2.0000      -0.540008       -14.6944
  20   2.0000      -0.526869       -14.3368
  21   2.0000      -0.452269       -12.3069
  22   2.0000      -0.445765       -12.1299
  23   2.0000      -0.436801       -11.8860
  24   2.0000      -0.435215       -11.8428
  25   0.0000       0.152931         4.1615
  26   0.0000       0.193792         5.2733
  27   0.0000       0.195106         5.3091
  28   0.0000       0.215193         5.8557
  29   0.0000       0.237740         6.4692

MULLIKEN ATOMIC CHARGES
-----------------------
   0 C :   -0.032690
   1 Cl:   -0.161679
   2 C :   -0.032686
   3 Cl:   -0.161677
   4 H :    0.102184
   5 H :    0.092183
   6 H :    0.102184
   7 H :    0.092181
Sum of atomic charges:   -0.0000000

LOEWDIN ATOMIC CHARGES
----------------------
   0 C :   -0.080801
   1 Cl:    0.012635
   2 C :   -0.080802
   3 Cl:    0.012637
   4 H :    0.033516
   5 H :    0.034651
   6 H :    0.033516
   7 H :    0.034650

  Mayer bond orders larger than 0.1
B(  0-C ,  1-Cl) :   0.9996 B(  0-C ,  2-C ) :   1.0235 B(  0-C ,  4-H ) :   0.9632
B(  0-C ,  5-H ) :   0.9630 B(  2-C ,  3-Cl) :   0.9996 B(  2-C ,  6-H ) :   0.9632
B(  2-C ,  7-H ) :   0.9630

E(0)                                       ...   -997.076418956
E(0)                                       ...   -997.076418956
E(CORR)(strong-pairs)                      ...     -0.604692948
E(CORR)(weak-pairs)                        ...     -0.000111625
E(CORR)(corrected)                         ...     -0.604804573
E(TOT)                                     ...   -997.681223529
E(CCSD(T))                                 ...   -997.696693578
FINAL SINGLE POINT ENERGY      -997.696693578214

DIPOLE MOMENT
-------------
                                X             Y             Z
Electronic contribution:      0.00003      -5.04626       0.00000
Nuclear contribution   :     -0.00003       6.28819      -0.00000
                        -----------------------------------------
Total Dipole Moment    :     -0.00000       1.24192       0.00000
                        -----------------------------------------
Magnitude (a.u.)       :      1.24192
Magnitude (Debye)      :      3.15672

Rotational constants in cm-1:     0.331677     0.070716     0.061833
Rotational constants in MHz :  9943.414980  2120.004875  1853.713541

                             ****ORCA TERMINATED NORMALLY****
TOTAL RUN TIME: 0 days 0 hours 1 minutes 0 seconds 224 msec
