                         Program Version 4.1.x  -  STABLE  -
|  1> ! RHF DLPNO-CCSD(T) cc-pVDZ RIJK cc-pVTZ/JK cc-pVDZ/C
|  2> ! KDIIS SOSCF TightSCF TightPNO
|  3>
|  4> %pal nprocs 4 end
|  5>
|  6> %maxcore 8000
|  7>
|  8> %scf maxiter 300
|  9>      shift shift 0.2 erroff 0.1 end
| 10> end
| 11>
| 12> * xyzfile 0 1 1_2_dichloroethane_a.xyz
| 13>
| 14>
| 15>                          ****END OF INPUT****

CARTESIAN COORDINATES (ANGSTROEM)
---------------------------------
  C     -0.490110   -0.579940    0.000020
  Cl    -2.185060    0.070500   -0.000010
  C      0.490100    0.579960    0.000020
  Cl     2.185060   -0.070510   -0.000010
  H     -0.381470   -1.197550   -0.891390
  H     -0.381510   -1.197530    0.891440
  H      0.381500    1.197570   -0.891380
  H      0.381480    1.197580    0.891430

 Total Charge           Charge          ....    0
 Multiplicity           Mult            ....    1
 Number of Electrons    NEL             ....   50
 Basis Dimension        Dim             ....   84

ORBITAL ENERGIES
----------------

  NO   OCC          E(Eh)            E(eV)
   0   2.0000    -104.831394     -2852.6072
   1   2.0000    -104.831393     -2852.6072
   2   2.0000     -11.322068      -308.0891
   3   2.0000     -11.321443      -308.0721
   4   2.0000     -10.558003      -287.2979
   5   2.0000     -10.557991      -287.2976
   6   2.0000      -8.025459      -218.3838
   7   2.0000      -8.025458      -218.3838
   8   2.0000      -8.022199      -218.2951
   9   2.0000      -8.022198      -218.2951
  10   2.0000      -8.022095      -218.2923
  11   2.0000      -8.022093      -218.2923
  12   2.0000      -1.170997       -31.8645
  13   2.0000      -1.116402       -30.3788
  14   2.0000      -0.978070       -26.6146
  15   2.0000      -0.856566       -23.3083
  16   2.0000      -0.687398       -18.7050
  17   2.0000      -0.608983       -16.5713
  18   2.0000      -0.598187       -16.2775
  19   2.0000      -0.577585       -15.7169
  20   2.0000      -0.518595       -14.1117
  21   2.0000      -0.459302       -12.4983
  22   2.0000      -0.448961       -12.2168
  23   2.0000      -0.445625       -12.1261
  24   2.0000      -0.440395       -11.9838
  25   0.0000       0.162869         4.4319
  26   0.0000       0.166860         4.5405
  27   0.0000       0.212697         5.7878
  28   0.0000       0.214800         5.8450
  29   0.0000       0.238724         6.4960

MULLIKEN ATOMIC CHARGES
-----------------------
   0 C :   -0.030415
   1 Cl:   -0.173737
   2 C :   -0.030417
   3 Cl:   -0.173743
   4 H :    0.102079
   5 H :    0.102078
   6 H :    0.102076
   7 H :    0.102078
Sum of atomic charges:   -0.0000000

LOEWDIN ATOMIC CHARGES
----------------------
   0 C :   -0.073734
   1 Cl:    0.007312
   2 C :   -0.073724
   3 Cl:    0.007298
   4 H :    0.033213
   5 H :    0.033211
   6 H :    0.033210
   7 H :    0.033214

  Mayer bond orders larger than 0.1
B(  0-C ,  1-Cl) :   0.9859 B(  0-C ,  2-C ) :   1.0097 B(  0-C ,  4-H ) :   0.9660
B(  0-C ,  5-H ) :   0.9660 B(  2-C ,  3-Cl) :   0.9859 B(  2-C ,  6-H ) :   0.9660
B(  2-C ,  7-H ) :   0.9660

E(0)                                       ...   -997.079383238
E(0)                                       ...   -997.079383238
E(CORR)(strong-pairs)                      ...     -0.604057713
E(CORR)(weak-pairs)                        ...     -0.000112070
E(CORR)(corrected)                         ...     -0.604169783
E(TOT)                                     ...   -997.683553021
E(CCSD(T))                                 ...   -997.699039609
FINAL SINGLE POINT ENERGY      -997.699039609012

DIPOLE MOMENT
-------------
                                X             Y             Z
Electronic contribution:     -0.00003      -0.00006      -0.00010
Nuclear contribution   :      0.00000       0.00008       0.00012
                        -----------------------------------------
Total Dipole Moment    :     -0.00002       0.00002       0.00002
                        -----------------------------------------
Magnitude (a.u.)       :      0.00004
Magnitude (Debye)      :      0.00010

Rotational constants in cm-1:     0.968660     0.048425     0.046943
Rotational constants in MHz : 29039.685351  1451.756080  1407.306033

                             ****ORCA TERMINATED NORMALLY****
TOTAL RUN TIME: 0 days 0 hours 1 minutes 0 seconds 230 msec
