                         Program Version 4.1.x  -  STABLE  -
|  1> ! RHF DLPNO-CCSD(T) cc-pVDZ RIJK cc-pVTZ/JK cc-pVDZ/C
|  2> ! KDIIS SOSCF TightSCF TightPNO
|  3>
|  4> %pal nprocs 4 end
|  5>
|  6> %maxcore 8000
|  7>
|  8> %scf maxiter 300
|  9>      shift shift 0.2 erroff 0.1 end
| 10> end
| 11>
| 12> * xyzfile 0 1 1_2_DCE_g.xyz
| 13>
| 14>
| 15>                          ****END OF INPUT****

CARTESIAN COORDINATES (ANGSTROEM)
---------------------------------
  C      1.548050   -0.176850    0.077150
  N      2.259950   -1.049270   -0.204600
  C      0.656890    0.937830    0.410870
  C     -0.656990    0.937890   -0.410820
  C     -1.548090   -0.176870   -0.077260
  N     -2.259820   -1.049400    0.204610
  H      0.433570    0.905130    1.482160
  H      1.191000    1.874030    0.216290
  H     -1.191090    1.874050   -0.216050
  H     -0.433630    0.905420   -1.482110

 Total Charge           Charge          ....    0
 Multiplicity           Mult            ....    1
 Number of Electrons    NEL             ....   42
 Basis Dimension        Dim             ....  104

ORBITAL ENERGIES
----------------

  NO   OCC          E(Eh)            E(eV)
   0   2.0000     -15.595574      -424.3772
   1   2.0000     -15.595569      -424.3770
   2   2.0000     -11.324988      -308.1686
   3   2.0000     -11.324442      -308.1537
   4   2.0000     -11.297670      -307.4252
   5   2.0000     -11.297664      -307.4251
   6   2.0000      -1.238290       -33.6956
   7   2.0000      -1.230609       -33.4866
   8   2.0000      -1.126904       -30.6646
   9   2.0000      -0.980252       -26.6740
  10   2.0000      -0.750856       -20.4318
  11   2.0000      -0.723824       -19.6962
  12   2.0000      -0.646037       -17.5796
  13   2.0000      -0.636337       -17.3156
  14   2.0000      -0.606212       -16.4959
  15   2.0000      -0.566233       -15.4080
  16   2.0000      -0.563738       -15.3401
  17   2.0000      -0.484529       -13.1847
  18   2.0000      -0.473553       -12.8860
  19   2.0000      -0.469563       -12.7774
  20   2.0000      -0.463492       -12.6123
  21   0.0000       0.126574         3.4442
  22   0.0000       0.161291         4.3890
  23   0.0000       0.163878         4.4594
  24   0.0000       0.189257         5.1499
  25   0.0000       0.205109         5.5813

MULLIKEN ATOMIC CHARGES
-----------------------
   0 C :   -0.047340
   1 N :   -0.159567
   2 C :   -0.001192
   3 C :   -0.001173
   4 C :   -0.047345
   5 N :   -0.159565
   6 H :    0.108604
   7 H :    0.099490
   8 H :    0.099489
   9 H :    0.108598
Sum of atomic charges:    0.0000000

LOEWDIN ATOMIC CHARGES
----------------------
   0 C :   -0.066800
   1 N :   -0.017530
   2 C :   -0.036825
   3 C :   -0.036829
   4 C :   -0.066796
   5 N :   -0.017530
   6 H :    0.061184
   7 H :    0.059973
   8 H :    0.059972
   9 H :    0.061181

  Mayer bond orders larger than 0.1
B(  0-C ,  1-N ) :   3.1620 B(  0-C ,  2-C ) :   0.9912 B(  2-C ,  3-C ) :   1.0515
B(  2-C ,  6-H ) :   0.9485 B(  2-C ,  7-H ) :   0.9532 B(  3-C ,  4-C ) :   0.9912
B(  3-C ,  8-H ) :   0.9532 B(  3-C ,  9-H ) :   0.9485 B(  4-C ,  5-N ) :   3.1620

E(0)                                       ...   -262.705824751
E(0)                                       ...   -262.705824751
E(CORR)(strong-pairs)                      ...     -0.864684583
E(CORR)(weak-pairs)                        ...     -0.000188249
E(CORR)(corrected)                         ...     -0.864872832
E(TOT)                                     ...   -263.570697582
E(CCSD(T))                                 ...   -263.603505174
FINAL SINGLE POINT ENERGY      -263.603505173982

DIPOLE MOMENT
-------------
                                X             Y             Z
Electronic contribution:      0.00000      -3.19693      -0.00026
Nuclear contribution   :     -0.00014       5.46246       0.00029
                        -----------------------------------------
Total Dipole Moment    :     -0.00014       2.26553       0.00003
                        -----------------------------------------
Magnitude (a.u.)       :      2.26553
Magnitude (Debye)      :      5.75851

Rotational constants in cm-1:     0.237572     0.075211     0.061225
Rotational constants in MHz :  7122.236203  2254.763770  1835.469833

                             ****ORCA TERMINATED NORMALLY****
TOTAL RUN TIME: 0 days 0 hours 0 minutes 44 seconds 708 msec
