                         Program Version 4.1.x  -  STABLE  -
|  1> ! RHF DLPNO-CCSD(T) cc-pVDZ RIJK cc-pVTZ/JK cc-pVDZ/C
|  2> ! KDIIS SOSCF TightSCF TightPNO
|  3>
|  4> %pal nprocs 4 end
|  5>
|  6> %maxcore 8000
|  7>
|  8> %scf maxiter 300
|  9>      shift shift 0.2 erroff 0.1 end
| 10> end
| 11>
| 12> * xyzfile 0 1 1_2_DCE_t.xyz
| 13>
| 14>
| 15>                          ****END OF INPUT****

CARTESIAN COORDINATES (ANGSTROEM)
---------------------------------
  C      1.883680    0.160010   -0.000100
  N      2.984720   -0.207990    0.000040
  C      0.487420    0.603120    0.000020
  C     -0.487380   -0.602990   -0.000020
  C     -1.883660   -0.159930    0.000100
  N     -2.984790    0.207770   -0.000040
  H      0.314140    1.228620    0.881740
  H      0.313990    1.228800   -0.881540
  H     -0.314110   -1.228500   -0.881740
  H     -0.313950   -1.228660    0.881550

 Total Charge           Charge          ....    0
 Multiplicity           Mult            ....    1
 Number of Electrons    NEL             ....   42
 Basis Dimension        Dim             ....  104

ORBITAL ENERGIES
----------------

  NO   OCC          E(Eh)            E(eV)
   0   2.0000     -15.600460      -424.5101
   1   2.0000     -15.600456      -424.5100
   2   2.0000     -11.325111      -308.1719
   3   2.0000     -11.324570      -308.1572
   4   2.0000     -11.302736      -307.5631
   5   2.0000     -11.302732      -307.5630
   6   2.0000      -1.242383       -33.8070
   7   2.0000      -1.236528       -33.6476
   8   2.0000      -1.128555       -30.7096
   9   2.0000      -0.982096       -26.7242
  10   2.0000      -0.752365       -20.4729
  11   2.0000      -0.701682       -19.0937
  12   2.0000      -0.692482       -18.8434
  13   2.0000      -0.619181       -16.8488
  14   2.0000      -0.598337       -16.2816
  15   2.0000      -0.577237       -15.7074
  16   2.0000      -0.566535       -15.4162
  17   2.0000      -0.490441       -13.3456
  18   2.0000      -0.476938       -12.9781
  19   2.0000      -0.475152       -12.9295
  20   2.0000      -0.467805       -12.7296
  21   0.0000       0.134926         3.6715
  22   0.0000       0.157689         4.2909
  23   0.0000       0.161487         4.3943
  24   0.0000       0.188917         5.1407
  25   0.0000       0.192119         5.2278

MULLIKEN ATOMIC CHARGES
-----------------------
   0 C :   -0.067994
   1 N :   -0.159754
   2 C :    0.008395
   3 C :    0.008384
   4 C :   -0.067993
   5 N :   -0.159750
   6 H :    0.109680
   7 H :    0.109672
   8 H :    0.109685
   9 H :    0.109676
Sum of atomic charges:    0.0000000

LOEWDIN ATOMIC CHARGES
----------------------
   0 C :   -0.065794
   1 N :   -0.021068
   2 C :   -0.036357
   3 C :   -0.036353
   4 C :   -0.065799
   5 N :   -0.021064
   6 H :    0.061610
   7 H :    0.061605
   8 H :    0.061613
   9 H :    0.061608

  Mayer bond orders larger than 0.1
B(  0-C ,  1-N ) :   3.1683 B(  0-C ,  2-C ) :   1.0098 B(  2-C ,  3-C ) :   1.0362
B(  2-C ,  6-H ) :   0.9451 B(  2-C ,  7-H ) :   0.9451 B(  3-C ,  4-C ) :   1.0098
B(  3-C ,  8-H ) :   0.9451 B(  3-C ,  9-H ) :   0.9451 B(  4-C ,  5-N ) :   3.1683

E(0)                                       ...   -262.707691048
E(0)                                       ...   -262.707691048
E(CORR)(strong-pairs)                      ...     -0.863983144
E(CORR)(weak-pairs)                        ...     -0.000225879
E(CORR)(corrected)                         ...     -0.864209022
E(TOT)                                     ...   -263.571900071
E(CCSD(T))                                 ...   -263.604631842
FINAL SINGLE POINT ENERGY      -263.604631842059

DIPOLE MOMENT
-------------
                                X             Y             Z
Electronic contribution:     -0.00001      -0.00005      -0.00001
Nuclear contribution   :      0.00007       0.00026       0.00001
                        -----------------------------------------
Total Dipole Moment    :      0.00007       0.00020       0.00000
                        -----------------------------------------
Magnitude (a.u.)       :      0.00021
Magnitude (Debye)      :      0.00054

Rotational constants in cm-1:     0.852473     0.048998     0.047147
Rotational constants in MHz : 25556.509011  1468.909614  1413.420957

                             ****ORCA TERMINATED NORMALLY****
TOTAL RUN TIME: 0 days 0 hours 0 minutes 47 seconds 678 msec
