                         Program Version 4.1.x  -  STABLE  -
|  1> ! RHF DLPNO-CCSD(T) cc-pVDZ RIJK cc-pVTZ/JK cc-pVDZ/C
|  2> ! KDIIS SOSCF TightSCF TightPNO
|  3>
|  4> %pal nprocs 4 end
|  5>
|  6> %maxcore 8000
|  7>
|  8> %scf maxiter 300
|  9>      shift shift 0.2 erroff 0.1 end
| 10> end
| 11>
| 12> * xyzfile 0 1 1_3_dichloropropane_g_plus_g_plus.xyz
| 13>
| 14>
| 15>                          ****END OF INPUT****

CARTESIAN COORDINATES (ANGSTROEM)
---------------------------------
  C     -0.983900    0.438280    0.831410
  Cl    -2.121100   -0.535290   -0.209370
  C      0.000010    1.250950    0.000150
  C      0.984030    0.438620   -0.831310
  Cl     2.121030   -0.535410    0.209240
  H     -0.474030   -0.276500    1.478150
  H     -1.615040    1.090210    1.435960
  H     -0.554550    1.903190   -0.686620
  H      0.554490    1.903080    0.687080
  H      0.474240   -0.275890   -1.478420
  H      1.615260    1.090780   -1.435520

 Total Charge           Charge          ....    0
 Multiplicity           Mult            ....    1
 Number of Electrons    NEL             ....   58
 Basis Dimension        Dim             ....  108

ORBITAL ENERGIES
----------------

  NO   OCC          E(Eh)            E(eV)
   0   2.0000    -104.819487     -2852.2832
   1   2.0000    -104.819484     -2852.2832
   2   2.0000     -11.309269      -307.7409
   3   2.0000     -11.309257      -307.7405
   4   2.0000     -11.267532      -306.6051
   5   2.0000     -10.546137      -286.9750
   6   2.0000     -10.546128      -286.9747
   7   2.0000      -8.013566      -218.0602
   8   2.0000      -8.013562      -218.0601
   9   2.0000      -8.010417      -217.9745
  10   2.0000      -8.010414      -217.9744
  11   2.0000      -8.010320      -217.9719
  12   2.0000      -8.010317      -217.9718
  13   2.0000      -1.157681       -31.5021
  14   2.0000      -1.117644       -30.4126
  15   2.0000      -1.026747       -27.9392
  16   2.0000      -0.918522       -24.9943
  17   2.0000      -0.813927       -22.1481
  18   2.0000      -0.669065       -18.2062
  19   2.0000      -0.661631       -18.0039
  20   2.0000      -0.596752       -16.2385
  21   2.0000      -0.568674       -15.4744
  22   2.0000      -0.558796       -15.2056
  23   2.0000      -0.518101       -14.0983
  24   2.0000      -0.499487       -13.5917
  25   2.0000      -0.443958       -12.0807
  26   2.0000      -0.440297       -11.9811
  27   2.0000      -0.432567       -11.7707
  28   2.0000      -0.431756       -11.7487
  29   0.0000       0.165475         4.5028
  30   0.0000       0.181314         4.9338
  31   0.0000       0.198390         5.3985
  32   0.0000       0.213515         5.8100
  33   0.0000       0.229110         6.2344

MULLIKEN ATOMIC CHARGES
-----------------------
   0 C :   -0.036240
   1 Cl:   -0.193790
   2 C :   -0.045875
   3 C :   -0.036239
   4 Cl:   -0.193784
   5 H :    0.104408
   6 H :    0.089911
   7 H :    0.058650
   8 H :    0.058645
   9 H :    0.104403
  10 H :    0.089911
Sum of atomic charges:    0.0000000

LOEWDIN ATOMIC CHARGES
----------------------
   0 C :   -0.055355
   1 Cl:   -0.012675
   2 C :   -0.057209
   3 C :   -0.055359
   4 Cl:   -0.012661
   5 H :    0.029570
   6 H :    0.031093
   7 H :    0.035965
   8 H :    0.035963
   9 H :    0.029574
  10 H :    0.031093

  Mayer bond orders larger than 0.1
B(  0-C ,  1-Cl) :   0.9742 B(  0-C ,  2-C ) :   1.0377 B(  0-C ,  5-H ) :   0.9612
B(  0-C ,  6-H ) :   0.9724 B(  2-C ,  3-C ) :   1.0377 B(  2-C ,  7-H ) :   0.9577
B(  2-C ,  8-H ) :   0.9577 B(  3-C ,  4-Cl) :   0.9742 B(  3-C ,  9-H ) :   0.9612
B(  3-C , 10-H ) :   0.9724

E(0)                                       ...  -1036.118892257
E(0)                                       ...  -1036.118892257
E(CORR)(strong-pairs)                      ...     -0.760205002
E(CORR)(weak-pairs)                        ...     -0.000190750
E(CORR)(corrected)                         ...     -0.760395751
E(TOT)                                     ...  -1036.879288009
E(CCSD(T))                                 ...  -1036.899600910
FINAL SINGLE POINT ENERGY     -1036.899600909527

DIPOLE MOMENT
-------------
                                X             Y             Z
Electronic contribution:     -0.00034      -5.69812      -0.00066
Nuclear contribution   :      0.00045       6.71641       0.00079
                        -----------------------------------------
Total Dipole Moment    :      0.00011       1.01829       0.00013
                        -----------------------------------------
Magnitude (a.u.)       :      1.01829
Magnitude (Debye)      :      2.58830

Rotational constants in cm-1:     0.204948     0.044619     0.041946
Rotational constants in MHz :  6144.195251  1337.648226  1257.516914

                             ****ORCA TERMINATED NORMALLY****
TOTAL RUN TIME: 0 days 0 hours 1 minutes 40 seconds 191 msec
