                         Program Version 4.1.x  -  STABLE  -
|  1> ! RHF DLPNO-CCSD(T) cc-pVDZ RIJK cc-pVTZ/JK cc-pVDZ/C
|  2> ! KDIIS SOSCF TightSCF TightPNO
|  3>
|  4> %pal nprocs 4 end
|  5>
|  6> %maxcore 8000
|  7>
|  8> %scf maxiter 300
|  9>      shift shift 0.2 erroff 0.1 end
| 10> end
| 11>
| 12> * xyzfile 0 1 1_3_butadiene_cis.xyz
| 13>
| 14>
| 15>                          ****END OF INPUT****

CARTESIAN COORDINATES (ANGSTROEM)
---------------------------------
  C     -1.550360   -0.504060   -0.000030
  C     -0.736220    0.563450    0.000030
  C      0.736220    0.563450   -0.000040
  C      1.550360   -0.504060    0.000020
  H     -1.194360    1.551510    0.000140
  H      1.194370    1.551510   -0.000120
  H     -1.176340   -1.524420   -0.000160
  H     -2.628950   -0.383380    0.000040
  H      1.176320   -1.524420    0.000160
  H      2.628950   -0.383410   -0.000030

 Total Charge           Charge          ....    0
 Multiplicity           Mult            ....    1
 Number of Electrons    NEL             ....   30
 Basis Dimension        Dim             ....   86

ORBITAL ENERGIES
----------------

  NO   OCC          E(Eh)            E(eV)
   0   2.0000     -11.243631      -305.9547
   1   2.0000     -11.242897      -305.9348
   2   2.0000     -11.235776      -305.7410
   3   2.0000     -11.235774      -305.7410
   4   2.0000      -1.084922       -29.5222
   5   2.0000      -0.991732       -26.9864
   6   2.0000      -0.843081       -22.9414
   7   2.0000      -0.724510       -19.7149
   8   2.0000      -0.664898       -18.0928
   9   2.0000      -0.608284       -16.5522
  10   2.0000      -0.580234       -15.7890
  11   2.0000      -0.512415       -13.9435
  12   2.0000      -0.495425       -13.4812
  13   2.0000      -0.437120       -11.8946
  14   2.0000      -0.320009        -8.7079
  15   0.0000       0.107696         2.9306
  16   0.0000       0.192090         5.2270
  17   0.0000       0.205180         5.5832
  18   0.0000       0.229948         6.2572
  19   0.0000       0.259725         7.0675

MULLIKEN ATOMIC CHARGES
-----------------------
   0 C :   -0.018409
   1 C :   -0.106649
   2 C :   -0.106653
   3 C :   -0.018411
   4 H :    0.028496
   5 H :    0.028497
   6 H :    0.044349
   7 H :    0.052215
   8 H :    0.044349
   9 H :    0.052215
Sum of atomic charges:    0.0000000

LOEWDIN ATOMIC CHARGES
----------------------
   0 C :   -0.034547
   1 C :   -0.040536
   2 C :   -0.040537
   3 C :   -0.034548
   4 H :    0.028578
   5 H :    0.028578
   6 H :    0.020513
   7 H :    0.025993
   8 H :    0.020514
   9 H :    0.025992

  Mayer bond orders larger than 0.1
B(  0-C ,  1-C ) :   1.9806 B(  0-C ,  6-H ) :   0.9644 B(  0-C ,  7-H ) :   0.9653
B(  1-C ,  2-C ) :   1.0887 B(  1-C ,  4-H ) :   0.9715 B(  2-C ,  3-C ) :   1.9806
B(  2-C ,  5-H ) :   0.9715 B(  3-C ,  8-H ) :   0.9644 B(  3-C ,  9-H ) :   0.9653

E(0)                                       ...   -154.927610121
E(0)                                       ...   -154.927610121
E(CORR)(strong-pairs)                      ...     -0.582605626
E(CORR)(weak-pairs)                        ...     -0.000105346
E(CORR)(corrected)                         ...     -0.582710972
E(TOT)                                     ...   -155.510321093
E(CCSD(T))                                 ...   -155.530971537
FINAL SINGLE POINT ENERGY      -155.530971537073

DIPOLE MOMENT
-------------
                                X             Y             Z
Electronic contribution:      0.00001       0.75852      -0.00003
Nuclear contribution   :     -0.00001      -0.74227       0.00005
                        -----------------------------------------
Total Dipole Moment    :      0.00000       0.01625       0.00002
                        -----------------------------------------
Magnitude (a.u.)       :      0.01625
Magnitude (Debye)      :      0.04131

Rotational constants in cm-1:     0.715682     0.186563     0.147986
Rotational constants in MHz : 21455.598987  5593.024372  4436.517406

                             ****ORCA TERMINATED NORMALLY****
TOTAL RUN TIME: 0 days 0 hours 1 minutes 26 seconds 107 msec
