                         Program Version 4.1.x  -  STABLE  -
|  1> ! RHF DLPNO-CCSD(T) cc-pVDZ RIJK cc-pVTZ/JK cc-pVDZ/C
|  2> ! KDIIS SOSCF TightSCF TightPNO
|  3>
|  4> %pal nprocs 4 end
|  5>
|  6> %maxcore 8000
|  7>
|  8> %scf maxiter 300
|  9>      shift shift 0.2 erroff 0.1 end
| 10> end
| 11>
| 12> * xyzfile 0 1 1_3_butadiene_t.xyz
| 13>
| 14>
| 15>                          ****END OF INPUT****

CARTESIAN COORDINATES (ANGSTROEM)
---------------------------------
  C      1.109260   -1.486760    0.000000
  C     -0.000010   -0.729210    0.000000
  C      0.000000    0.729200    0.000000
  C     -1.109260    1.486770    0.000000
  H      1.057990   -2.570700    0.000000
  H      2.100990   -1.040500    0.000000
  H     -0.977150   -1.212820    0.000000
  H      0.977130    1.212820    0.000000
  H     -1.057960    2.570710    0.000000
  H     -2.100990    1.040530    0.000000

 Total Charge           Charge          ....    0
 Multiplicity           Mult            ....    1
 Number of Electrons    NEL             ....   30
 Basis Dimension        Dim             ....   86

ORBITAL ENERGIES
----------------

  NO   OCC          E(Eh)            E(eV)
   0   2.0000     -11.244584      -305.9807
   1   2.0000     -11.243792      -305.9591
   2   2.0000     -11.236695      -305.7660
   3   2.0000     -11.236686      -305.7658
   4   2.0000      -1.088997       -29.6331
   5   2.0000      -0.997570       -27.1453
   6   2.0000      -0.825511       -22.4633
   7   2.0000      -0.750944       -20.4342
   8   2.0000      -0.640475       -17.4282
   9   2.0000      -0.630957       -17.1692
  10   2.0000      -0.554234       -15.0815
  11   2.0000      -0.541136       -14.7250
  12   2.0000      -0.490543       -13.3483
  13   2.0000      -0.440864       -11.9965
  14   2.0000      -0.320232        -8.7140
  15   0.0000       0.117842         3.2066
  16   0.0000       0.202985         5.5235
  17   0.0000       0.206440         5.6175
  18   0.0000       0.214853         5.8465
  19   0.0000       0.241466         6.5706

MULLIKEN ATOMIC CHARGES
-----------------------
   0 C :   -0.026960
   1 C :   -0.089900
   2 C :   -0.089903
   3 C :   -0.026959
   4 H :    0.051212
   5 H :    0.041780
   6 H :    0.023872
   7 H :    0.023869
   8 H :    0.051212
   9 H :    0.041777
Sum of atomic charges:   -0.0000000

LOEWDIN ATOMIC CHARGES
----------------------
   0 C :   -0.044355
   1 C :   -0.030918
   2 C :   -0.030917
   3 C :   -0.044356
   4 H :    0.025175
   5 H :    0.021628
   6 H :    0.028472
   7 H :    0.028470
   8 H :    0.025176
   9 H :    0.021626

  Mayer bond orders larger than 0.1
B(  0-C ,  1-C ) :   1.9551 B(  0-C ,  4-H ) :   0.9694 B(  0-C ,  5-H ) :   0.9682
B(  1-C ,  2-C ) :   1.0765 B(  1-C ,  6-H ) :   0.9742 B(  2-C ,  3-C ) :   1.9551
B(  2-C ,  7-H ) :   0.9742 B(  3-C ,  8-H ) :   0.9694 B(  3-C ,  9-H ) :   0.9682

E(0)                                       ...   -154.934110631
E(0)                                       ...   -154.934110631
E(CORR)(strong-pairs)                      ...     -0.581669068
E(CORR)(weak-pairs)                        ...     -0.000099688
E(CORR)(corrected)                         ...     -0.581768756
E(TOT)                                     ...   -155.515879387
E(CCSD(T))                                 ...   -155.536519439
FINAL SINGLE POINT ENERGY      -155.536519438569

DIPOLE MOMENT
-------------
                                X             Y             Z
Electronic contribution:     -0.00002      -0.00004       0.00000
Nuclear contribution   :      0.00002       0.00003       0.00000
                        -----------------------------------------
Total Dipole Moment    :      0.00000      -0.00001       0.00000
                        -----------------------------------------
Magnitude (a.u.)       :      0.00001
Magnitude (Debye)      :      0.00002

Rotational constants in cm-1:     1.408927     0.146566     0.132756
Rotational constants in MHz : 42238.578900  4393.925754  3979.910172

                             ****ORCA TERMINATED NORMALLY****
TOTAL RUN TIME: 0 days 0 hours 1 minutes 26 seconds 712 msec
