                         Program Version 4.1.x  -  STABLE  -
|  1> ! RHF DLPNO-CCSD(T) cc-pVDZ RIJK cc-pVTZ/JK cc-pVDZ/C
|  2> ! KDIIS SOSCF TightSCF TightPNO
|  3>
|  4> %pal nprocs 4 end
|  5>
|  6> %maxcore 8000
|  7>
|  8> %scf maxiter 300
|  9>      shift shift 0.2 erroff 0.1 end
| 10> end
| 11>
| 12> * xyzfile 0 1 1_3_dichloropropane_a_a.xyz
| 13>
| 14>
| 15>                          ****END OF INPUT****

CARTESIAN COORDINATES (ANGSTROEM)
---------------------------------
  C      1.252700   -0.691730    0.000000
  Cl     2.761460    0.319120    0.000000
  C      0.000000    0.181550    0.000000
  C     -1.252650   -0.691810    0.000000
  Cl    -2.761480    0.318920    0.000000
  H      1.308950   -1.323190    0.888940
  H      1.308950   -1.323190   -0.888940
  H     -0.000040    0.829170    0.882010
  H     -0.000040    0.829170   -0.882010
  H     -1.308860   -1.323300   -0.888920
  H     -1.308860   -1.323300    0.888920

 Total Charge           Charge          ....    0
 Multiplicity           Mult            ....    1
 Number of Electrons    NEL             ....   58
 Basis Dimension        Dim             ....  108

ORBITAL ENERGIES
----------------

  NO   OCC          E(Eh)            E(eV)
   0   2.0000    -104.823393     -2852.3895
   1   2.0000    -104.823392     -2852.3895
   2   2.0000     -11.315057      -307.8984
   3   2.0000     -11.315053      -307.8982
   4   2.0000     -11.264528      -306.5234
   5   2.0000     -10.549891      -287.0771
   6   2.0000     -10.549883      -287.0769
   7   2.0000      -8.017370      -218.1637
   8   2.0000      -8.017369      -218.1637
   9   2.0000      -8.014091      -218.0745
  10   2.0000      -8.014090      -218.0745
  11   2.0000      -8.014035      -218.0730
  12   2.0000      -8.014034      -218.0730
  13   2.0000      -1.158934       -31.5362
  14   2.0000      -1.126424       -30.6515
  15   2.0000      -1.031114       -28.0580
  16   2.0000      -0.901870       -24.5411
  17   2.0000      -0.837541       -22.7906
  18   2.0000      -0.689576       -18.7643
  19   2.0000      -0.617368       -16.7994
  20   2.0000      -0.616226       -16.7684
  21   2.0000      -0.593529       -16.1507
  22   2.0000      -0.531666       -14.4674
  23   2.0000      -0.526074       -14.3152
  24   2.0000      -0.513966       -13.9857
  25   2.0000      -0.450627       -12.2622
  26   2.0000      -0.441948       -12.0260
  27   2.0000      -0.437239       -11.8979
  28   2.0000      -0.429092       -11.6762
  29   0.0000       0.136649         3.7184
  30   0.0000       0.187972         5.1150
  31   0.0000       0.198258         5.3949
  32   0.0000       0.215431         5.8622
  33   0.0000       0.221399         6.0246

MULLIKEN ATOMIC CHARGES
-----------------------
   0 C :   -0.061560
   1 Cl:   -0.169555
   2 C :   -0.022988
   3 C :   -0.061563
   4 Cl:   -0.169550
   5 H :    0.087167
   6 H :    0.087167
   7 H :    0.068279
   8 H :    0.068279
   9 H :    0.087162
  10 H :    0.087162
Sum of atomic charges:    0.0000000

LOEWDIN ATOMIC CHARGES
----------------------
   0 C :   -0.064847
   1 Cl:    0.004105
   2 C :   -0.054063
   3 C :   -0.064854
   4 Cl:    0.004112
   5 H :    0.027025
   6 H :    0.027025
   7 H :    0.033726
   8 H :    0.033726
   9 H :    0.027023
  10 H :    0.027023

  Mayer bond orders larger than 0.1
B(  0-C ,  1-Cl) :   0.9999 B(  0-C ,  2-C ) :   1.0187 B(  0-C ,  5-H ) :   0.9674
B(  0-C ,  6-H ) :   0.9674 B(  2-C ,  3-C ) :   1.0187 B(  2-C ,  7-H ) :   0.9634
B(  2-C ,  8-H ) :   0.9634 B(  3-C ,  4-Cl) :   0.9999 B(  3-C ,  9-H ) :   0.9674
B(  3-C , 10-H ) :   0.9674

E(0)                                       ...  -1036.116664998
E(0)                                       ...  -1036.116664998
E(CORR)(strong-pairs)                      ...     -0.760020926
E(CORR)(weak-pairs)                        ...     -0.000205308
E(CORR)(corrected)                         ...     -0.760226234
E(TOT)                                     ...  -1036.876891232
E(CCSD(T))                                 ...  -1036.897110075
FINAL SINGLE POINT ENERGY     -1036.897110074770

DIPOLE MOMENT
-------------
                                X             Y             Z
Electronic contribution:     -0.00010       3.52380      -0.00000
Nuclear contribution   :      0.00012      -4.38410       0.00000
                        -----------------------------------------
Total Dipole Moment    :      0.00002      -0.86030      -0.00000
                        -----------------------------------------
Magnitude (a.u.)       :      0.86030
Magnitude (Debye)      :      2.18671

Rotational constants in cm-1:     0.524711     0.028569     0.027514
Rotational constants in MHz : 15730.441128   856.478987   824.860097

                             ****ORCA TERMINATED NORMALLY****
TOTAL RUN TIME: 0 days 0 hours 2 minutes 3 seconds 825 msec
