                         Program Version 4.1.x  -  STABLE  -
|  1> ! RHF DLPNO-CCSD(T) cc-pVDZ RIJK cc-pVTZ/JK cc-pVDZ/C
|  2> ! KDIIS SOSCF TightSCF TightPNO
|  3>
|  4> %pal nprocs 4 end
|  5>
|  6> %maxcore 8000
|  7>
|  8> %scf maxiter 300
|  9>      shift shift 0.2 erroff 0.1 end
| 10> end
| 11>
| 12> * xyzfile 0 1 1_3_dichloropropane_a_g.xyz
| 13>
| 14>
| 15>                          ****END OF INPUT****

CARTESIAN COORDINATES (ANGSTROEM)
---------------------------------
  C     -1.386990    0.942630    0.207970
  Cl    -2.347190   -0.575420   -0.103660
  C      0.052390    0.838300   -0.285440
  C      0.869320   -0.206990    0.464990
  Cl     2.593240   -0.220990   -0.110210
  H     -1.440470    1.118200    1.284510
  H     -1.916270    1.743410   -0.309650
  H      0.064460    0.621060   -1.358190
  H      0.513900    1.824870   -0.149650
  H      0.905200    0.001100    1.536460
  H      0.482030   -1.213310    0.307200

 Total Charge           Charge          ....    0
 Multiplicity           Mult            ....    1
 Number of Electrons    NEL             ....   58
 Basis Dimension        Dim             ....  108

ORBITAL ENERGIES
----------------

  NO   OCC          E(Eh)            E(eV)
   0   2.0000    -104.824469     -2852.4188
   1   2.0000    -104.818790     -2852.2643
   2   2.0000     -11.316896      -307.9484
   3   2.0000     -11.307892      -307.7034
   4   2.0000     -11.266237      -306.5699
   5   2.0000     -10.551106      -287.1102
   6   2.0000     -10.545335      -286.9532
   7   2.0000      -8.018541      -218.1956
   8   2.0000      -8.015355      -218.1089
   9   2.0000      -8.015280      -218.1069
  10   2.0000      -8.012806      -218.0395
  11   2.0000      -8.009575      -217.9516
  12   2.0000      -8.009509      -217.9498
  13   2.0000      -1.158547       -31.5257
  14   2.0000      -1.122310       -30.5396
  15   2.0000      -1.028815       -27.9955
  16   2.0000      -0.911739       -24.8097
  17   2.0000      -0.825819       -22.4717
  18   2.0000      -0.674728       -18.3603
  19   2.0000      -0.645483       -17.5645
  20   2.0000      -0.612366       -16.6633
  21   2.0000      -0.578678       -15.7466
  22   2.0000      -0.541718       -14.7409
  23   2.0000      -0.519826       -14.1452
  24   2.0000      -0.506770       -13.7899
  25   2.0000      -0.450689       -12.2639
  26   2.0000      -0.441484       -12.0134
  27   2.0000      -0.435308       -11.8453
  28   2.0000      -0.428122       -11.6498
  29   0.0000       0.151496         4.1224
  30   0.0000       0.186653         5.0791
  31   0.0000       0.199608         5.4316
  32   0.0000       0.214008         5.8235
  33   0.0000       0.220729         6.0063

MULLIKEN ATOMIC CHARGES
-----------------------
   0 C :   -0.047876
   1 Cl:   -0.187141
   2 C :   -0.033758
   3 C :   -0.046444
   4 Cl:   -0.180996
   5 H :    0.087632
   6 H :    0.094369
   7 H :    0.068167
   8 H :    0.058836
   9 H :    0.083164
  10 H :    0.104047
Sum of atomic charges:    0.0000000

LOEWDIN ATOMIC CHARGES
----------------------
   0 C :   -0.057156
   1 Cl:   -0.009628
   2 C :   -0.055928
   3 C :   -0.061195
   4 Cl:   -0.002913
   5 H :    0.027525
   6 H :    0.033275
   7 H :    0.034396
   8 H :    0.035794
   9 H :    0.026389
  10 H :    0.029441

  Mayer bond orders larger than 0.1
B(  0-C ,  1-Cl) :   0.9779 B(  0-C ,  2-C ) :   1.0398 B(  0-C ,  5-H ) :   0.9649
B(  0-C ,  6-H ) :   0.9723 B(  2-C ,  3-C ) :   1.0174 B(  2-C ,  7-H ) :   0.9623
B(  2-C ,  8-H ) :   0.9578 B(  3-C ,  4-Cl) :   0.9918 B(  3-C ,  9-H ) :   0.9684
B(  3-C , 10-H ) :   0.9644

E(0)                                       ...  -1036.117795771
E(0)                                       ...  -1036.117795771
E(CORR)(strong-pairs)                      ...     -0.760053690
E(CORR)(weak-pairs)                        ...     -0.000204308
E(CORR)(corrected)                         ...     -0.760257998
E(TOT)                                     ...  -1036.878053768
E(CCSD(T))                                 ...  -1036.898313702
FINAL SINGLE POINT ENERGY     -1036.898313702279

DIPOLE MOMENT
-------------
                                X             Y             Z
Electronic contribution:      1.32130      -4.26249      -1.20323
Nuclear contribution   :     -1.68055       5.04667       1.55858
                        -----------------------------------------
Total Dipole Moment    :     -0.35924       0.78419       0.35535
                        -----------------------------------------
Magnitude (a.u.)       :      0.93289
Magnitude (Debye)      :      2.37122

Rotational constants in cm-1:     0.316062     0.034822     0.032703
Rotational constants in MHz :  9475.307371  1043.924084   980.411803

                             ****ORCA TERMINATED NORMALLY****
TOTAL RUN TIME: 0 days 0 hours 1 minutes 42 seconds 243 msec
