                         Program Version 4.1.x  -  STABLE  -
|  1> ! RHF DLPNO-CCSD(T) cc-pVDZ RIJK cc-pVTZ/JK cc-pVDZ/C
|  2> ! KDIIS SOSCF TightSCF TightPNO
|  3>
|  4> %pal nprocs 4 end
|  5>
|  6> %maxcore 8000
|  7>
|  8> %scf maxiter 300
|  9>      shift shift 0.2 erroff 0.1 end
| 10> end
| 11>
| 12> * xyzfile 0 1 1_4_diF_cyclohexane_dieq.xyz
| 13>
| 14>
| 15>                          ****END OF INPUT****

CARTESIAN COORDINATES (ANGSTROEM)
---------------------------------
  C      0.749630    1.266030    0.175760
  C     -0.749680    1.265990   -0.175750
  C     -1.424650    0.000000    0.341630
  C     -0.749620   -1.266010   -0.175750
  C      0.749670   -1.265980    0.175770
  C      1.424640   -0.000010   -0.341640
  F     -2.776580   -0.000030   -0.071560
  F      2.776580    0.000010    0.071540
  H     -1.242210   -2.148890    0.243560
  H     -0.885930   -1.307690   -1.264260
  H     -1.447660   -0.000010    1.439440
  H     -0.886000    1.307760   -1.264250
  H     -1.242260    2.148860    0.243630
  H      0.886010   -1.307700    1.264280
  H      1.242280   -2.148870   -0.243560
  H      1.447630   -0.000020   -1.439450
  H      0.885960    1.307690    1.264270
  H      1.242220    2.148890   -0.243580

 Total Charge           Charge          ....    0
 Multiplicity           Mult            ....    1
 Number of Electrons    NEL             ....   64
 Basis Dimension        Dim             ....  162

ORBITAL ENERGIES
----------------

  NO   OCC          E(Eh)            E(eV)
   0   2.0000     -26.269675      -714.8342
   1   2.0000     -26.269671      -714.8341
   2   2.0000     -11.318800      -308.0002
   3   2.0000     -11.318797      -308.0001
   4   2.0000     -11.245940      -306.0176
   5   2.0000     -11.245919      -306.0170
   6   2.0000     -11.245362      -306.0018
   7   2.0000     -11.245346      -306.0014
   8   2.0000      -1.574596       -42.8469
   9   2.0000      -1.574402       -42.8417
  10   2.0000      -1.139045       -30.9950
  11   2.0000      -1.032612       -28.0988
  12   2.0000      -1.014431       -27.6041
  13   2.0000      -0.870653       -23.6917
  14   2.0000      -0.848356       -23.0849
  15   2.0000      -0.794516       -21.6199
  16   2.0000      -0.701296       -19.0832
  17   2.0000      -0.690393       -18.7865
  18   2.0000      -0.685067       -18.6416
  19   2.0000      -0.667396       -18.1608
  20   2.0000      -0.648758       -17.6536
  21   2.0000      -0.640292       -17.4232
  22   2.0000      -0.603794       -16.4301
  23   2.0000      -0.585869       -15.9423
  24   2.0000      -0.579799       -15.7771
  25   2.0000      -0.553964       -15.0741
  26   2.0000      -0.519951       -14.1486
  27   2.0000      -0.510220       -13.8838
  28   2.0000      -0.500367       -13.6157
  29   2.0000      -0.496533       -13.5114
  30   2.0000      -0.469600       -12.7785
  31   2.0000      -0.451818       -12.2946
  32   0.0000       0.168820         4.5938
  33   0.0000       0.175669         4.7802
  34   0.0000       0.202630         5.5138
  35   0.0000       0.214619         5.8401
  36   0.0000       0.243113         6.6154

MULLIKEN ATOMIC CHARGES
-----------------------
   0 C :   -0.056944
   1 C :   -0.056944
   2 C :    0.284471
   3 C :   -0.056943
   4 C :   -0.056949
   5 C :    0.284465
   6 F :   -0.375961
   7 F :   -0.375966
   8 H :    0.047596
   9 H :    0.041969
  10 H :    0.026247
  11 H :    0.041972
  12 H :    0.047596
  13 H :    0.041972
  14 H :    0.047599
  15 H :    0.026249
  16 H :    0.041972
  17 H :    0.047598
Sum of atomic charges:   -0.0000000

LOEWDIN ATOMIC CHARGES
----------------------
   0 C :   -0.032621
   1 C :   -0.032634
   2 C :    0.061340
   3 C :   -0.032627
   4 C :   -0.032638
   5 C :    0.061345
   6 F :   -0.123986
   7 F :   -0.123994
   8 H :    0.030517
   9 H :    0.025388
  10 H :    0.016092
  11 H :    0.025389
  12 H :    0.030520
  13 H :    0.025390
  14 H :    0.030522
  15 H :    0.016091
  16 H :    0.025388
  17 H :    0.030515

  Mayer bond orders larger than 0.1
B(  0-C ,  1-C ) :   1.0256 B(  0-C ,  5-C ) :   1.0335 B(  0-C , 16-H ) :   0.9593
B(  0-C , 17-H ) :   0.9673 B(  1-C ,  2-C ) :   1.0335 B(  1-C , 11-H ) :   0.9593
B(  1-C , 12-H ) :   0.9673 B(  2-C ,  3-C ) :   1.0335 B(  2-C ,  6-F ) :   0.8633
B(  2-C , 10-H ) :   0.9617 B(  3-C ,  4-C ) :   1.0256 B(  3-C ,  8-H ) :   0.9673
B(  3-C ,  9-H ) :   0.9593 B(  4-C ,  5-C ) :   1.0335 B(  4-C , 13-H ) :   0.9593
B(  4-C , 14-H ) :   0.9673 B(  5-C ,  7-F ) :   0.8633 B(  5-C , 15-H ) :   0.9617

E(0)                                       ...   -431.943822501
E(0)                                       ...   -431.943822501
E(CORR)(strong-pairs)                      ...     -1.278298747
E(CORR)(weak-pairs)                        ...     -0.000615075
E(CORR)(corrected)                         ...     -1.278913822
E(TOT)                                     ...   -433.222736323
E(CCSD(T))                                 ...   -433.256802686
FINAL SINGLE POINT ENERGY      -433.256802686225

DIPOLE MOMENT
-------------
                                X             Y             Z
Electronic contribution:     -0.00006      -0.00004      -0.00009
Nuclear contribution   :      0.00004       0.00004       0.00010
                        -----------------------------------------
Total Dipole Moment    :     -0.00001       0.00001       0.00000
                        -----------------------------------------
Magnitude (a.u.)       :      0.00001
Magnitude (Debye)      :      0.00004

Rotational constants in cm-1:     0.143036     0.042395     0.034771
Rotational constants in MHz :  4288.125067  1270.959017  1042.418907

                             ****ORCA TERMINATED NORMALLY****
TOTAL RUN TIME: 0 days 0 hours 3 minutes 58 seconds 840 msec
