                         Program Version 4.1.x  -  STABLE  -
|  1> ! RHF DLPNO-CCSD(T) cc-pVDZ RIJK cc-pVTZ/JK cc-pVDZ/C
|  2> ! KDIIS SOSCF TightSCF TightPNO
|  3>
|  4> %pal nprocs 4 end
|  5>
|  6> %maxcore 8000
|  7>
|  8> %scf maxiter 300
|  9>      shift shift 0.2 erroff 0.1 end
| 10> end
| 11>
| 12> * xyzfile 0 1 1_4_diF_cyclohexane_diax.xyz
| 13>
| 14>
| 15>                          ****END OF INPUT****

CARTESIAN COORDINATES (ANGSTROEM)
---------------------------------
  C     -0.527550    1.270800   -0.559430
  C      0.527590    1.270790    0.559460
  C      1.370140   -0.000010    0.555750
  C      0.527580   -1.270780    0.559460
  C     -0.527570   -1.270790   -0.559420
  C     -1.370130   -0.000010   -0.555760
  F      2.170140   -0.000010   -0.624880
  F     -2.170190    0.000020    0.624830
  H      1.185290   -2.141220    0.464810
  H      0.033000   -1.343420    1.535680
  H      2.081950   -0.000010    1.388440
  H      0.033030    1.343430    1.535690
  H      1.185330    2.141200    0.464770
  H     -0.033020   -1.343470   -1.535650
  H     -1.185310   -2.141210   -0.464730
  H     -2.081920   -0.000030   -1.388460
  H     -0.032970    1.343460   -1.535650
  H     -1.185280    2.141220   -0.464750

 Total Charge           Charge          ....    0
 Multiplicity           Mult            ....    1
 Number of Electrons    NEL             ....   64
 Basis Dimension        Dim             ....  162

ORBITAL ENERGIES
----------------

  NO   OCC          E(Eh)            E(eV)
   0   2.0000     -26.264472      -714.6926
   1   2.0000     -26.264469      -714.6925
   2   2.0000     -11.314220      -307.8756
   3   2.0000     -11.314217      -307.8755
   4   2.0000     -11.238761      -305.8222
   5   2.0000     -11.238739      -305.8216
   6   2.0000     -11.238177      -305.8064
   7   2.0000     -11.238164      -305.8060
   8   2.0000      -1.567716       -42.6597
   9   2.0000      -1.566869       -42.6367
  10   2.0000      -1.126095       -30.6426
  11   2.0000      -1.026382       -27.9293
  12   2.0000      -1.016738       -27.6669
  13   2.0000      -0.864621       -23.5275
  14   2.0000      -0.850146       -23.1337
  15   2.0000      -0.764142       -20.7934
  16   2.0000      -0.708620       -19.2825
  17   2.0000      -0.688154       -18.7256
  18   2.0000      -0.670174       -18.2364
  19   2.0000      -0.666882       -18.1468
  20   2.0000      -0.653885       -17.7931
  21   2.0000      -0.614230       -16.7140
  22   2.0000      -0.590719       -16.0743
  23   2.0000      -0.589023       -16.0281
  24   2.0000      -0.566379       -15.4120
  25   2.0000      -0.542828       -14.7711
  26   2.0000      -0.528198       -14.3730
  27   2.0000      -0.516436       -14.0529
  28   2.0000      -0.504872       -13.7383
  29   2.0000      -0.489229       -13.3126
  30   2.0000      -0.449003       -12.2180
  31   2.0000      -0.448026       -12.1914
  32   0.0000       0.174045         4.7360
  33   0.0000       0.192722         5.2442
  34   0.0000       0.220308         5.9949
  35   0.0000       0.229570         6.2469
  36   0.0000       0.240920         6.5558

MULLIKEN ATOMIC CHARGES
-----------------------
   0 C :   -0.039295
   1 C :   -0.039286
   2 C :    0.252850
   3 C :   -0.039287
   4 C :   -0.039293
   5 C :    0.252853
   6 F :   -0.389265
   7 F :   -0.389267
   8 H :    0.044352
   9 H :    0.048165
  10 H :    0.029959
  11 H :    0.048166
  12 H :    0.044353
  13 H :    0.048166
  14 H :    0.044352
  15 H :    0.029959
  16 H :    0.048167
  17 H :    0.044353
Sum of atomic charges:   -0.0000000

LOEWDIN ATOMIC CHARGES
----------------------
   0 C :   -0.034003
   1 C :   -0.034003
   2 C :    0.070515
   3 C :   -0.034007
   4 C :   -0.034007
   5 C :    0.070521
   6 F :   -0.144009
   7 F :   -0.144013
   8 H :    0.029500
   9 H :    0.031092
  10 H :    0.020324
  11 H :    0.031090
  12 H :    0.029499
  13 H :    0.031091
  14 H :    0.029500
  15 H :    0.020322
  16 H :    0.031090
  17 H :    0.029498

  Mayer bond orders larger than 0.1
B(  0-C ,  1-C ) :   1.0317 B(  0-C ,  5-C ) :   1.0389 B(  0-C , 16-H ) :   0.9569
B(  0-C , 17-H ) :   0.9671 B(  1-C ,  2-C ) :   1.0389 B(  1-C , 11-H ) :   0.9569
B(  1-C , 12-H ) :   0.9671 B(  2-C ,  3-C ) :   1.0389 B(  2-C ,  6-F ) :   0.8459
B(  2-C , 10-H ) :   0.9740 B(  3-C ,  4-C ) :   1.0317 B(  3-C ,  8-H ) :   0.9671
B(  3-C ,  9-H ) :   0.9569 B(  4-C ,  5-C ) :   1.0389 B(  4-C , 13-H ) :   0.9569
B(  4-C , 14-H ) :   0.9671 B(  5-C ,  7-F ) :   0.8459 B(  5-C , 15-H ) :   0.9740

E(0)                                       ...   -431.946371087
E(0)                                       ...   -431.946371087
E(CORR)(strong-pairs)                      ...     -1.278252875
E(CORR)(weak-pairs)                        ...     -0.000649757
E(CORR)(corrected)                         ...     -1.278902632
E(TOT)                                     ...   -433.225273719
E(CCSD(T))                                 ...   -433.259292508
FINAL SINGLE POINT ENERGY      -433.259292508340

DIPOLE MOMENT
-------------
                                X             Y             Z
Electronic contribution:     -0.00010       0.00004      -0.00017
Nuclear contribution   :      0.00015      -0.00006       0.00019
                        -----------------------------------------
Total Dipole Moment    :      0.00004      -0.00003       0.00003
                        -----------------------------------------
Magnitude (a.u.)       :      0.00006
Magnitude (Debye)      :      0.00015

Rotational constants in cm-1:     0.109234     0.055566     0.047386
Rotational constants in MHz :  3274.745618  1665.833658  1420.594062

                             ****ORCA TERMINATED NORMALLY****
TOTAL RUN TIME: 0 days 0 hours 4 minutes 1 seconds 725 msec
