                         Program Version 4.1.x  -  STABLE  -
|  1> ! RHF DLPNO-CCSD(T) cc-pVDZ RIJK cc-pVTZ/JK cc-pVDZ/C
|  2> ! KDIIS SOSCF TightSCF TightPNO
|  3>
|  4> %pal nprocs 4 end
|  5>
|  6> %maxcore 8000
|  7>
|  8> %scf maxiter 300
|  9>      shift shift 0.2 erroff 0.1 end
| 10> end
| 11>
| 12> * xyzfile 0 1 1_4_diCl_cyclohexane_diax.xyz
| 13>
| 14>
| 15>                          ****END OF INPUT****

CARTESIAN COORDINATES (ANGSTROEM)
---------------------------------
  C     -0.388430    1.269700   -0.661840
  C      0.388430    1.269710    0.661930
  C      1.218020    0.000010    0.865320
  C      0.388440   -1.269690    0.661940
  C     -0.388390   -1.269710   -0.661830
  C     -1.217960   -0.000020   -0.865280
  Cl     2.666360    0.000000   -0.288240
  Cl    -2.666420   -0.000010    0.288120
  H     -0.319550   -1.324050    1.499420
  H      1.029880   -2.153670    0.725160
  H      1.684200    0.000010    1.851970
  H      1.029860    2.153690    0.725130
  H     -0.319580    1.324050    1.499400
  H     -1.029820   -2.153690   -0.725020
  H      0.319630   -1.324080   -1.499280
  H     -1.684060   -0.000020   -1.851970
  H     -1.029890    2.153660   -0.725020
  H      0.319580    1.324120   -1.499300

 Total Charge           Charge          ....    0
 Multiplicity           Mult            ....    1
 Number of Electrons    NEL             ....   80
 Basis Dimension        Dim             ....  170

ORBITAL ENERGIES
----------------

  NO   OCC          E(Eh)            E(eV)
   0   2.0000    -104.811074     -2852.0543
   1   2.0000    -104.811072     -2852.0543
   2   2.0000     -11.309795      -307.7552
   3   2.0000     -11.309792      -307.7551
   4   2.0000     -11.249837      -306.1236
   5   2.0000     -11.249815      -306.1230
   6   2.0000     -11.249245      -306.1075
   7   2.0000     -11.249233      -306.1072
   8   2.0000     -10.537805      -286.7483
   9   2.0000     -10.537799      -286.7481
  10   2.0000      -8.005123      -217.8305
  11   2.0000      -8.005121      -217.8304
  12   2.0000      -8.002129      -217.7490
  13   2.0000      -8.002127      -217.7490
  14   2.0000      -8.002120      -217.7487
  15   2.0000      -8.002118      -217.7487
  16   2.0000      -1.174736       -31.9662
  17   2.0000      -1.124058       -30.5872
  18   2.0000      -1.050290       -28.5798
  19   2.0000      -1.033000       -28.1094
  20   2.0000      -0.984688       -26.7947
  21   2.0000      -0.866393       -23.5758
  22   2.0000      -0.835390       -22.7321
  23   2.0000      -0.737090       -20.0572
  24   2.0000      -0.689752       -18.7691
  25   2.0000      -0.647613       -17.6224
  26   2.0000      -0.632228       -17.2038
  27   2.0000      -0.593602       -16.1527
  28   2.0000      -0.581594       -15.8260
  29   2.0000      -0.572118       -15.5681
  30   2.0000      -0.551911       -15.0183
  31   2.0000      -0.512871       -13.9559
  32   2.0000      -0.498017       -13.5517
  33   2.0000      -0.485766       -13.2184
  34   2.0000      -0.479152       -13.0384
  35   2.0000      -0.467720       -12.7273
  36   2.0000      -0.433409       -11.7936
  37   2.0000      -0.429511       -11.6876
  38   2.0000      -0.425702       -11.5839
  39   2.0000      -0.424158       -11.5419
  40   0.0000       0.166117         4.5203
  41   0.0000       0.175451         4.7743
  42   0.0000       0.186027         5.0621
  43   0.0000       0.202441         5.5087
  44   0.0000       0.219456         5.9717

MULLIKEN ATOMIC CHARGES
-----------------------
   0 C :    0.016687
   1 C :    0.016689
   2 C :   -0.135986
   3 C :    0.016685
   4 C :    0.016698
   5 C :   -0.135988
   6 Cl:   -0.194186
   7 Cl:   -0.194188
   8 H :    0.056745
   9 H :    0.052105
  10 H :    0.079090
  11 H :    0.052105
  12 H :    0.056746
  13 H :    0.052105
  14 H :    0.056748
  15 H :    0.079093
  16 H :    0.052106
  17 H :    0.056747
Sum of atomic charges:    0.0000000

LOEWDIN ATOMIC CHARGES
----------------------
   0 C :   -0.034109
   1 C :   -0.034106
   2 C :   -0.048511
   3 C :   -0.034109
   4 C :   -0.034108
   5 C :   -0.048514
   6 Cl:   -0.035237
   7 Cl:   -0.035238
   8 H :    0.030896
   9 H :    0.030359
  10 H :    0.029458
  11 H :    0.030357
  12 H :    0.030897
  13 H :    0.030358
  14 H :    0.030896
  15 H :    0.029459
  16 H :    0.030357
  17 H :    0.030895

  Mayer bond orders larger than 0.1
B(  0-C ,  1-C ) :   1.0379 B(  0-C ,  5-C ) :   1.0170 B(  0-C , 16-H ) :   0.9679
B(  0-C , 17-H ) :   0.9538 B(  1-C ,  2-C ) :   1.0170 B(  1-C , 11-H ) :   0.9679
B(  1-C , 12-H ) :   0.9538 B(  2-C ,  3-C ) :   1.0170 B(  2-C ,  6-Cl) :   0.9654
B(  2-C , 10-H ) :   0.9718 B(  3-C ,  4-C ) :   1.0379 B(  3-C ,  8-H ) :   0.9538
B(  3-C ,  9-H ) :   0.9679 B(  4-C ,  5-C ) :   1.0170 B(  4-C , 13-H ) :   0.9679
B(  4-C , 14-H ) :   0.9538 B(  5-C ,  7-Cl) :   0.9654 B(  5-C , 15-H ) :   0.9718

E(0)                                       ...  -1152.077099585
E(0)                                       ...  -1152.077099585
E(CORR)(strong-pairs)                      ...     -1.201571509
E(CORR)(weak-pairs)                        ...     -0.000611654
E(CORR)(corrected)                         ...     -1.202183163
E(TOT)                                     ...  -1153.279282748
E(CCSD(T))                                 ...  -1153.315908837
FINAL SINGLE POINT ENERGY     -1153.315908837479

DIPOLE MOMENT
-------------
                                X             Y             Z
Electronic contribution:     -0.00027      -0.00005      -0.00058
Nuclear contribution   :      0.00034       0.00005       0.00066
                        -----------------------------------------
Total Dipole Moment    :      0.00007      -0.00000       0.00007
                        -----------------------------------------
Magnitude (a.u.)       :      0.00010
Magnitude (Debye)      :      0.00025

Rotational constants in cm-1:     0.101512     0.027171     0.025510
Rotational constants in MHz :  3043.265075   814.565713   764.785521

                             ****ORCA TERMINATED NORMALLY****
TOTAL RUN TIME: 0 days 0 hours 4 minutes 56 seconds 129 msec
