                         Program Version 4.1.x  -  STABLE  -
|  1> ! RHF DLPNO-CCSD(T) cc-pVDZ RIJK cc-pVTZ/JK cc-pVDZ/C
|  2> ! KDIIS SOSCF TightSCF TightPNO
|  3>
|  4> %pal nprocs 4 end
|  5>
|  6> %maxcore 8000
|  7>
|  8> %scf maxiter 300
|  9>      shift shift 0.2 erroff 0.1 end
| 10> end
| 11>
| 12> * xyzfile 0 1 1_4_diCl_cyclohexane_dieq.xyz
| 13>
| 14>
| 15>                          ****END OF INPUT****

CARTESIAN COORDINATES (ANGSTROEM)
---------------------------------
  C     -0.753930    1.266770   -0.162280
  C      0.753920    1.266800    0.162340
  C      1.418360    0.000010   -0.376970
  C      0.753920   -1.266780    0.162340
  C     -0.753920   -1.266790   -0.162280
  C     -1.418360    0.000010    0.376970
  Cl     3.202120   -0.000000    0.040160
  Cl    -3.202110   -0.000010   -0.040220
  H      0.906630   -1.314510    1.247650
  H      1.228310   -2.154390   -0.266990
  H      1.396980   -0.000010   -1.470620
  H      1.228280    2.154410   -0.267000
  H      0.906610    1.314530    1.247650
  H     -1.228300   -2.154410    0.267020
  H     -0.906630   -1.314520   -1.247610
  H     -1.397060    0.000020    1.470650
  H     -1.228330    2.154380    0.267030
  H     -0.906650    1.314540   -1.247600

 Total Charge           Charge          ....    0
 Multiplicity           Mult            ....    1
 Number of Electrons    NEL             ....   80
 Basis Dimension        Dim             ....  170

ORBITAL ENERGIES
----------------

  NO   OCC          E(Eh)            E(eV)
   0   2.0000    -104.815074     -2852.1632
   1   2.0000    -104.815073     -2852.1631
   2   2.0000     -11.310913      -307.7856
   3   2.0000     -11.310909      -307.7855
   4   2.0000     -11.255352      -306.2737
   5   2.0000     -11.255331      -306.2731
   6   2.0000     -11.254779      -306.2581
   7   2.0000     -11.254763      -306.2577
   8   2.0000     -10.541666      -286.8533
   9   2.0000     -10.541661      -286.8532
  10   2.0000      -8.009058      -217.9376
  11   2.0000      -8.009057      -217.9375
  12   2.0000      -8.005946      -217.8529
  13   2.0000      -8.005945      -217.8528
  14   2.0000      -8.005906      -217.8518
  15   2.0000      -8.005904      -217.8517
  16   2.0000      -1.178829       -32.0776
  17   2.0000      -1.133436       -30.8424
  18   2.0000      -1.063817       -28.9479
  19   2.0000      -1.037231       -28.2245
  20   2.0000      -0.971364       -26.4322
  21   2.0000      -0.870292       -23.6818
  22   2.0000      -0.827580       -22.5196
  23   2.0000      -0.788172       -21.4473
  24   2.0000      -0.673795       -18.3349
  25   2.0000      -0.632062       -17.1993
  26   2.0000      -0.626410       -17.0455
  27   2.0000      -0.625949       -17.0329
  28   2.0000      -0.579189       -15.7605
  29   2.0000      -0.558631       -15.2011
  30   2.0000      -0.551890       -15.0177
  31   2.0000      -0.524991       -14.2857
  32   2.0000      -0.516936       -14.0665
  33   2.0000      -0.494125       -13.4458
  34   2.0000      -0.489229       -13.3126
  35   2.0000      -0.466773       -12.7015
  36   2.0000      -0.432896       -11.7797
  37   2.0000      -0.431501       -11.7417
  38   2.0000      -0.429888       -11.6978
  39   2.0000      -0.426314       -11.6006
  40   0.0000       0.146773         3.9939
  41   0.0000       0.173159         4.7119
  42   0.0000       0.196928         5.3587
  43   0.0000       0.199848         5.4381
  44   0.0000       0.218322         5.9409

MULLIKEN ATOMIC CHARGES
-----------------------
   0 C :    0.022710
   1 C :    0.022727
   2 C :   -0.158134
   3 C :    0.022713
   4 C :    0.022713
   5 C :   -0.158142
   6 Cl:   -0.164669
   7 Cl:   -0.164673
   8 H :    0.046316
   9 H :    0.053491
  10 H :    0.077761
  11 H :    0.053491
  12 H :    0.046317
  13 H :    0.053491
  14 H :    0.046317
  15 H :    0.077766
  16 H :    0.053489
  17 H :    0.046316
Sum of atomic charges:   -0.0000000

LOEWDIN ATOMIC CHARGES
----------------------
   0 C :   -0.032276
   1 C :   -0.032261
   2 C :   -0.067506
   3 C :   -0.032268
   4 C :   -0.032270
   5 C :   -0.067512
   6 Cl:   -0.006800
   7 Cl:   -0.006802
   8 H :    0.025407
   9 H :    0.031584
  10 H :    0.024860
  11 H :    0.031583
  12 H :    0.025408
  13 H :    0.031583
  14 H :    0.025411
  15 H :    0.024866
  16 H :    0.031584
  17 H :    0.025410

  Mayer bond orders larger than 0.1
B(  0-C ,  1-C ) :   1.0420 B(  0-C ,  5-C ) :   0.9941 B(  0-C , 16-H ) :   0.9677
B(  0-C , 17-H ) :   0.9604 B(  1-C ,  2-C ) :   0.9941 B(  1-C , 11-H ) :   0.9677
B(  1-C , 12-H ) :   0.9604 B(  2-C ,  3-C ) :   0.9941 B(  2-C ,  6-Cl) :   1.0074
B(  2-C , 10-H ) :   0.9602 B(  3-C ,  4-C ) :   1.0420 B(  3-C ,  8-H ) :   0.9604
B(  3-C ,  9-H ) :   0.9677 B(  4-C ,  5-C ) :   0.9941 B(  4-C , 13-H ) :   0.9677
B(  4-C , 14-H ) :   0.9604 B(  5-C ,  7-Cl) :   1.0074 B(  5-C , 15-H ) :   0.9602

E(0)                                       ...  -1152.077041869
E(0)                                       ...  -1152.077041869
E(CORR)(strong-pairs)                      ...     -1.201220132
E(CORR)(weak-pairs)                        ...     -0.000547365
E(CORR)(corrected)                         ...     -1.201767496
E(TOT)                                     ...  -1153.278809365
E(CCSD(T))                                 ...  -1153.315283126
FINAL SINGLE POINT ENERGY     -1153.315283126247

DIPOLE MOMENT
-------------
                                X             Y             Z
Electronic contribution:      0.00017      -0.00004      -0.00023
Nuclear contribution   :     -0.00017       0.00005       0.00027
                        -----------------------------------------
Total Dipole Moment    :      0.00000       0.00001       0.00004
                        -----------------------------------------
Magnitude (a.u.)       :      0.00004
Magnitude (Debye)      :      0.00010

Rotational constants in cm-1:     0.142264     0.020268     0.018348
Rotational constants in MHz :  4264.970933   607.630695   550.051603

                             ****ORCA TERMINATED NORMALLY****
TOTAL RUN TIME: 0 days 0 hours 4 minutes 59 seconds 55 msec
