                         Program Version 4.1.x  -  STABLE  -
|  1> ! RHF DLPNO-CCSD(T) cc-pVDZ RIJK cc-pVTZ/JK cc-pVDZ/C
|  2> ! KDIIS SOSCF TightSCF TightPNO
|  3>
|  4> %pal nprocs 4 end
|  5>
|  6> %maxcore 8000
|  7>
|  8> %scf maxiter 300
|  9>      shift shift 0.2 erroff 0.1 end
| 10> end
| 11>
| 12> * xyzfile 0 1 1_Butene_skew.xyz
| 13>
| 14>
| 15>                          ****END OF INPUT****

CARTESIAN COORDINATES (ANGSTROEM)
---------------------------------
  C     -1.866650    0.020710   -0.277810
  C     -0.722840   -0.300290    0.334750
  C      0.540110    0.517650    0.310140
  C      1.733580   -0.242960   -0.294660
  H     -0.672700   -1.233740    0.898970
  H     -2.742740   -0.619160   -0.223120
  H     -1.965870    0.938410   -0.854110
  H      2.643290    0.366340   -0.263440
  H      1.933040   -1.169270    0.256600
  H      1.538710   -0.511990   -1.338210
  H      0.365560    1.445010   -0.249170
  H      0.795520    0.813700    1.338010

 Total Charge           Charge          ....    0
 Multiplicity           Mult            ....    1
 Number of Electrons    NEL             ....   32
 Basis Dimension        Dim             ....   96

ORBITAL ENERGIES
----------------

  NO   OCC          E(Eh)            E(eV)
   0   2.0000     -11.235763      -305.7407
   1   2.0000     -11.231921      -305.6361
   2   2.0000     -11.225076      -305.4499
   3   2.0000     -11.223963      -305.4196
   4   2.0000      -1.076166       -29.2840
   5   2.0000      -0.985970       -26.8296
   6   2.0000      -0.854311       -23.2470
   7   2.0000      -0.751843       -20.4587
   8   2.0000      -0.637671       -17.3519
   9   2.0000      -0.602228       -16.3875
  10   2.0000      -0.581386       -15.8203
  11   2.0000      -0.531821       -14.4716
  12   2.0000      -0.514232       -13.9930
  13   2.0000      -0.484181       -13.1752
  14   2.0000      -0.472144       -12.8477
  15   2.0000      -0.355742        -9.6802
  16   0.0000       0.168748         4.5919
  17   0.0000       0.196196         5.3388
  18   0.0000       0.213837         5.8188
  19   0.0000       0.223810         6.0902
  20   0.0000       0.242617         6.6020

MULLIKEN ATOMIC CHARGES
-----------------------
   0 C :   -0.033811
   1 C :   -0.146137
   2 C :   -0.033630
   3 C :   -0.055719
   4 H :    0.024836
   5 H :    0.044077
   6 H :    0.036280
   7 H :    0.031345
   8 H :    0.029893
   9 H :    0.037827
  10 H :    0.025840
  11 H :    0.039199
Sum of atomic charges:   -0.0000000

LOEWDIN ATOMIC CHARGES
----------------------
   0 C :   -0.065708
   1 C :   -0.024806
   2 C :   -0.037173
   3 C :   -0.050268
   4 H :    0.022219
   5 H :    0.022215
   6 H :    0.018600
   7 H :    0.022431
   8 H :    0.020248
   9 H :    0.022233
  10 H :    0.023556
  11 H :    0.026454

  Mayer bond orders larger than 0.1
B(  0-C ,  1-C ) :   2.0106 B(  0-C ,  5-H ) :   0.9706 B(  0-C ,  6-H ) :   0.9676
B(  1-C ,  2-C ) :   1.0360 B(  1-C ,  4-H ) :   0.9710 B(  2-C ,  3-C ) :   1.0531
B(  2-C , 10-H ) :   0.9686 B(  2-C , 11-H ) :   0.9616 B(  3-C ,  7-H ) :   0.9839
B(  3-C ,  8-H ) :   0.9824 B(  3-C ,  9-H ) :   0.9817

E(0)                                       ...   -156.119198582
E(0)                                       ...   -156.119198582
E(CORR)(strong-pairs)                      ...     -0.616374131
E(CORR)(weak-pairs)                        ...     -0.000129212
E(CORR)(corrected)                         ...     -0.616503343
E(TOT)                                     ...   -156.735701925
E(CCSD(T))                                 ...   -156.754606007
FINAL SINGLE POINT ENERGY      -156.754606006702

DIPOLE MOMENT
-------------
                                X             Y             Z
Electronic contribution:     -1.89439      -0.01961       0.50204
Nuclear contribution   :      2.02956       0.03139      -0.46538
                        -----------------------------------------
Total Dipole Moment    :      0.13517       0.01178       0.03666
                        -----------------------------------------
Magnitude (a.u.)       :      0.14055
Magnitude (Debye)      :      0.35725

Rotational constants in cm-1:     0.757698     0.136792     0.133631
Rotational constants in MHz : 22715.202634  4100.929082  4006.148049

                             ****ORCA TERMINATED NORMALLY****
TOTAL RUN TIME: 0 days 0 hours 1 minutes 26 seconds 939 msec
