                         Program Version 4.1.x  -  STABLE  -
|  1> ! RHF DLPNO-CCSD(T) cc-pVDZ RIJK cc-pVTZ/JK cc-pVDZ/C
|  2> ! KDIIS SOSCF TightSCF TightPNO
|  3>
|  4> %pal nprocs 4 end
|  5>
|  6> %maxcore 8000
|  7>
|  8> %scf maxiter 300
|  9>      shift shift 0.2 erroff 0.1 end
| 10> end
| 11>
| 12> * xyzfile 0 1 1_Butene_cis.xyz
| 13>
| 14>
| 15>                          ****END OF INPUT****

CARTESIAN COORDINATES (ANGSTROEM)
---------------------------------
  C     -1.541180   -0.587620    0.000020
  C     -0.856030    0.560520   -0.000010
  C      0.643590    0.720530    0.000030
  C      1.458860   -0.574840   -0.000030
  H     -1.416410    1.496650   -0.000130
  H     -2.627270   -0.592500   -0.000060
  H     -1.051970   -1.557610    0.000060
  H      2.531020   -0.353620   -0.000010
  H      1.243630   -1.183000    0.885330
  H      1.243610   -1.182940   -0.885420
  H      0.923010    1.330810   -0.871780
  H      0.922950    1.330670    0.871950

 Total Charge           Charge          ....    0
 Multiplicity           Mult            ....    1
 Number of Electrons    NEL             ....   32
 Basis Dimension        Dim             ....   96

ORBITAL ENERGIES
----------------

  NO   OCC          E(Eh)            E(eV)
   0   2.0000     -11.236351      -305.7567
   1   2.0000     -11.233205      -305.6711
   2   2.0000     -11.222938      -305.3917
   3   2.0000     -11.222268      -305.3734
   4   2.0000      -1.076634       -29.2967
   5   2.0000      -0.981545       -26.7092
   6   2.0000      -0.868193       -23.6247
   7   2.0000      -0.734816       -19.9954
   8   2.0000      -0.641377       -17.4527
   9   2.0000      -0.607698       -16.5363
  10   2.0000      -0.581916       -15.8347
  11   2.0000      -0.539740       -14.6871
  12   2.0000      -0.496227       -13.5030
  13   2.0000      -0.490348       -13.3430
  14   2.0000      -0.472541       -12.8585
  15   2.0000      -0.354907        -9.6575
  16   0.0000       0.179509         4.8847
  17   0.0000       0.186143         5.0652
  18   0.0000       0.211644         5.7591
  19   0.0000       0.231251         6.2927
  20   0.0000       0.250515         6.8169

MULLIKEN ATOMIC CHARGES
-----------------------
   0 C :   -0.048771
   1 C :   -0.139956
   2 C :   -0.050476
   3 C :   -0.057902
   4 H :    0.024793
   5 H :    0.043317
   6 H :    0.039287
   7 H :    0.033458
   8 H :    0.038487
   9 H :    0.038489
  10 H :    0.039636
  11 H :    0.039639
Sum of atomic charges:   -0.0000000

LOEWDIN ATOMIC CHARGES
----------------------
   0 C :   -0.071745
   1 C :   -0.025095
   2 C :   -0.042756
   3 C :   -0.051439
   4 H :    0.024269
   5 H :    0.022353
   6 H :    0.018019
   7 H :    0.024065
   8 H :    0.022302
   9 H :    0.022301
  10 H :    0.028863
  11 H :    0.028864

  Mayer bond orders larger than 0.1
B(  0-C ,  1-C ) :   2.0130 B(  0-C ,  5-H ) :   0.9690 B(  0-C ,  6-H ) :   0.9653
B(  1-C ,  2-C ) :   1.0468 B(  1-C ,  4-H ) :   0.9729 B(  2-C ,  3-C ) :   1.0716
B(  2-C , 10-H ) :   0.9583 B(  2-C , 11-H ) :   0.9583 B(  3-C ,  7-H ) :   0.9819
B(  3-C ,  8-H ) :   0.9780 B(  3-C ,  9-H ) :   0.9780

E(0)                                       ...   -156.118339739
E(0)                                       ...   -156.118339739
E(CORR)(strong-pairs)                      ...     -0.616788649
E(CORR)(weak-pairs)                        ...     -0.000138443
E(CORR)(corrected)                         ...     -0.616927093
E(TOT)                                     ...   -156.735266832
E(CCSD(T))                                 ...   -156.754179354
FINAL SINGLE POINT ENERGY      -156.754179353935

DIPOLE MOMENT
-------------
                                X             Y             Z
Electronic contribution:     -1.76271       0.86362       0.00004
Nuclear contribution   :      1.89435      -0.76214      -0.00006
                        -----------------------------------------
Total Dipole Moment    :      0.13164       0.10148      -0.00002
                        -----------------------------------------
Magnitude (a.u.)       :      0.16621
Magnitude (Debye)      :      0.42247

Rotational constants in cm-1:     0.513916     0.182608     0.141789
Rotational constants in MHz : 15406.808857  5474.458496  4250.720181

                             ****ORCA TERMINATED NORMALLY****
TOTAL RUN TIME: 0 days 0 hours 1 minutes 27 seconds 664 msec
