                         Program Version 4.1.x  -  STABLE  -
|  1> ! RHF DLPNO-CCSD(T) cc-pVDZ RIJK cc-pVTZ/JK cc-pVDZ/C
|  2> ! KDIIS SOSCF TightSCF TightPNO
|  3>
|  4> %pal nprocs 4 end
|  5>
|  6> %maxcore 8000
|  7>
|  8> %scf maxiter 300
|  9>      shift shift 0.2 erroff 0.1 end
| 10> end
| 11>
| 12> * xyzfile 0 1 1_keto_cyclodecanone.xyz
| 13>
| 14>
| 15>                          ****END OF INPUT****

CARTESIAN COORDINATES (ANGSTROEM)
---------------------------------
  C      2.095040    1.330090    0.310080
  C      2.442520   -0.000030   -0.395890
  C      2.095000   -1.330130    0.310080
  C      0.604770   -1.676230    0.521310
  C     -0.254340   -1.685750   -0.762260
  C     -1.745540   -1.328950   -0.535460
  C     -1.995900    0.000000    0.180380
  O     -2.414430    0.000010    1.329390
  C      0.604810    1.676240    0.521310
  C     -0.254300    1.685760   -0.762260
  C     -1.745500    1.328990   -0.535450
  H      2.589230    1.347860    1.291400
  H      2.561820    2.136920   -0.272960
  H      0.547310    2.664000    0.996380
  H      0.173700    0.988690    1.252890
  H      3.530170   -0.000030   -0.547520
  H      2.022560   -0.000010   -1.409580
  H      0.164420    1.003840   -1.506060
  H     -0.217100    2.679030   -1.226330
  H      2.589190   -1.347920    1.291410
  H      2.561750   -2.136980   -0.272950
  H      0.173670   -0.988660    1.252870
  H      0.547240   -2.663990    0.996390
  H     -2.253810    1.308400   -1.508980
  H     -2.223660    2.098260    0.079070
  H     -0.217180   -2.679040   -1.226300
  H      0.164390   -1.003860   -1.506070
  H     -2.223710   -2.098190    0.079070
  H     -2.253840   -1.308340   -1.509000

 Total Charge           Charge          ....    0
 Multiplicity           Mult            ....    1
 Number of Electrons    NEL             ....   86
 Basis Dimension        Dim             ....  244

ORBITAL ENERGIES
----------------

  NO   OCC          E(Eh)            E(eV)
   0   2.0000     -20.542260      -558.9833
   1   2.0000     -11.326824      -308.2185
   2   2.0000     -11.238602      -305.8179
   3   2.0000     -11.238575      -305.8172
   4   2.0000     -11.237508      -305.7881
   5   2.0000     -11.237499      -305.7879
   6   2.0000     -11.228354      -305.5390
   7   2.0000     -11.228192      -305.5346
   8   2.0000     -11.227321      -305.5109
   9   2.0000     -11.225636      -305.4651
  10   2.0000     -11.225627      -305.4648
  11   2.0000      -1.375671       -37.4339
  12   2.0000      -1.104339       -30.0506
  13   2.0000      -1.069238       -29.0954
  14   2.0000      -1.055375       -28.7182
  15   2.0000      -0.984019       -26.7765
  16   2.0000      -0.957807       -26.0632
  17   2.0000      -0.871837       -23.7239
  18   2.0000      -0.864337       -23.5198
  19   2.0000      -0.796022       -21.6609
  20   2.0000      -0.761409       -20.7190
  21   2.0000      -0.720400       -19.6031
  22   2.0000      -0.662097       -18.0166
  23   2.0000      -0.643354       -17.5065
  24   2.0000      -0.634813       -17.2741
  25   2.0000      -0.615824       -16.7574
  26   2.0000      -0.606623       -16.5071
  27   2.0000      -0.594742       -16.1838
  28   2.0000      -0.575333       -15.6556
  29   2.0000      -0.566747       -15.4220
  30   2.0000      -0.561058       -15.2672
  31   2.0000      -0.531502       -14.4629
  32   2.0000      -0.529434       -14.4066
  33   2.0000      -0.511756       -13.9256
  34   2.0000      -0.498094       -13.5538
  35   2.0000      -0.492475       -13.4009
  36   2.0000      -0.473908       -12.8957
  37   2.0000      -0.463918       -12.6239
  38   2.0000      -0.461569       -12.5599
  39   2.0000      -0.446122       -12.1396
  40   2.0000      -0.443591       -12.0707
  41   2.0000      -0.436475       -11.8771
  42   2.0000      -0.393155       -10.6983
  43   0.0000       0.142694         3.8829
  44   0.0000       0.179326         4.8797
  45   0.0000       0.189555         5.1581
  46   0.0000       0.197686         5.3793
  47   0.0000       0.202635         5.5140

MULLIKEN ATOMIC CHARGES
-----------------------
   0 C :   -0.024888
   1 C :   -0.071659
   2 C :   -0.024885
   3 C :   -0.065427
   4 C :   -0.079019
   5 C :    0.009327
   6 C :    0.130929
   7 O :   -0.348581
   8 C :   -0.065426
   9 C :   -0.079015
  10 C :    0.009313
  11 H :    0.025014
  12 H :    0.024159
  13 H :    0.031031
  14 H :    0.045696
  15 H :    0.028692
  16 H :    0.020577
  17 H :    0.028727
  18 H :    0.036469
  19 H :    0.025015
  20 H :    0.024159
  21 H :    0.045696
  22 H :    0.031033
  23 H :    0.036760
  24 H :    0.052170
  25 H :    0.036471
  26 H :    0.028729
  27 H :    0.052168
  28 H :    0.036765
Sum of atomic charges:   -0.0000000

LOEWDIN ATOMIC CHARGES
----------------------
   0 C :   -0.031876
   1 C :   -0.040027
   2 C :   -0.031878
   3 C :   -0.037037
   4 C :   -0.030909
   5 C :   -0.040199
   6 C :    0.020670
   7 O :   -0.103428
   8 C :   -0.037037
   9 C :   -0.030914
  10 C :   -0.040198
  11 H :    0.021210
  12 H :    0.020319
  13 H :    0.024057
  14 H :    0.017821
  15 H :    0.025919
  16 H :    0.011577
  17 H :    0.013569
  18 H :    0.024981
  19 H :    0.021213
  20 H :    0.020320
  21 H :    0.017820
  22 H :    0.024059
  23 H :    0.028287
  24 H :    0.032420
  25 H :    0.024982
  26 H :    0.013568
  27 H :    0.032419
  28 H :    0.028291

  Mayer bond orders larger than 0.1
B(  0-C ,  1-C ) :   1.0456 B(  0-C ,  8-C ) :   1.0569 B(  0-C , 11-H ) :   0.9664
B(  0-C , 12-H ) :   0.9659 B(  1-C ,  2-C ) :   1.0456 B(  1-C , 15-H ) :   0.9687
B(  1-C , 16-H ) :   0.9651 B(  2-C ,  3-C ) :   1.0569 B(  2-C , 19-H ) :   0.9664
B(  2-C , 20-H ) :   0.9659 B(  3-C ,  4-C ) :   1.0121 B(  3-C , 21-H ) :   0.9676
B(  3-C , 22-H ) :   0.9680 B(  4-C ,  5-C ) :   1.0551 B(  4-C , 25-H ) :   0.9687
B(  4-C , 26-H ) :   0.9682 B(  5-C ,  6-C ) :   1.0006 B(  5-C , 27-H ) :   0.9571
B(  5-C , 28-H ) :   0.9567 B(  6-C ,  7-O ) :   2.0395 B(  6-C , 10-C ) :   1.0006
B(  8-C ,  9-C ) :   1.0121 B(  8-C , 13-H ) :   0.9680 B(  8-C , 14-H ) :   0.9676
B(  9-C , 10-C ) :   1.0551 B(  9-C , 17-H ) :   0.9682 B(  9-C , 18-H ) :   0.9687
B( 10-C , 23-H ) :   0.9567 B( 10-C , 24-H ) :   0.9571

E(0)                                       ...   -464.050257507
E(0)                                       ...   -464.050257507
E(CORR)(strong-pairs)                      ...     -1.712353300
E(CORR)(weak-pairs)                        ...     -0.001158867
E(CORR)(corrected)                         ...     -1.713512167
E(TOT)                                     ...   -465.763769674
E(CCSD(T))                                 ...   -465.818558193
FINAL SINGLE POINT ENERGY      -465.818558193434

DIPOLE MOMENT
-------------
                                X             Y             Z
Electronic contribution:     -7.96530      -0.00001       2.83714
Nuclear contribution   :      8.58399      -0.00002      -3.90065
                        -----------------------------------------
Total Dipole Moment    :      0.61868      -0.00003      -1.06352
                        -----------------------------------------
Magnitude (a.u.)       :      1.23038
Magnitude (Debye)      :      3.12738

Rotational constants in cm-1:     0.046591     0.030701     0.022640
Rotational constants in MHz :  1396.777388   920.388665   678.727467

                             ****ORCA TERMINATED NORMALLY****
TOTAL RUN TIME: 0 days 0 hours 9 minutes 38 seconds 800 msec
