                         Program Version 4.1.x  -  STABLE  -
|  1> ! RHF DLPNO-CCSD(T) cc-pVDZ RIJK cc-pVTZ/JK cc-pVDZ/C
|  2> ! KDIIS SOSCF TightSCF TightPNO
|  3>
|  4> %pal nprocs 4 end
|  5>
|  6> %maxcore 8000
|  7>
|  8> %scf maxiter 300
|  9>      shift shift 0.2 erroff 0.1 end
| 10> end
| 11>
| 12> * xyzfile 0 1 1_propanol_ga.xyz
| 13>
| 14>
| 15>                          ****END OF INPUT****

CARTESIAN COORDINATES (ANGSTROEM)
---------------------------------
  C      1.553920   -0.514680    0.128280
  C      0.635400    0.637940   -0.292180
  C     -0.767500    0.545710    0.295320
  O     -1.397280   -0.635230   -0.214750
  H     -1.347700    1.438320    0.017320
  H      0.549900    0.670400   -1.385690
  H      1.067740    1.597800    0.020520
  H      2.548150   -0.407330   -0.318440
  H      1.678670   -0.542150    1.217790
  H      1.140400   -1.476830   -0.186610
  H     -0.711430    0.504980    1.394740
  H     -2.278480   -0.717160    0.169880

 Total Charge           Charge          ....    0
 Multiplicity           Mult            ....    1
 Number of Electrons    NEL             ....   34
 Basis Dimension        Dim             ....   96

ORBITAL ENERGIES
----------------

  NO   OCC          E(Eh)            E(eV)
   0   2.0000     -20.548185      -559.1445
   1   2.0000     -11.276192      -306.8408
   2   2.0000     -11.223004      -305.3935
   3   2.0000     -11.213849      -305.1444
   4   2.0000      -1.346135       -36.6302
   5   2.0000      -1.043603       -28.3979
   6   2.0000      -0.914160       -24.8756
   7   2.0000      -0.793080       -21.5808
   8   2.0000      -0.692352       -18.8399
   9   2.0000      -0.635353       -17.2888
  10   2.0000      -0.579109       -15.7584
  11   2.0000      -0.573997       -15.6193
  12   2.0000      -0.530716       -14.4415
  13   2.0000      -0.494856       -13.4657
  14   2.0000      -0.478853       -13.0303
  15   2.0000      -0.463410       -12.6100
  16   2.0000      -0.433989       -11.8095
  17   0.0000       0.179975         4.8974
  18   0.0000       0.213926         5.8212
  19   0.0000       0.228926         6.2294
  20   0.0000       0.233924         6.3654
  21   0.0000       0.263191         7.1618

MULLIKEN ATOMIC CHARGES
-----------------------
   0 C :   -0.051259
   1 C :   -0.101103
   2 C :    0.188590
   3 O :   -0.392334
   4 H :    0.017800
   5 H :    0.037523
   6 H :    0.021403
   7 H :    0.028431
   8 H :    0.023145
   9 H :    0.050415
  10 H :    0.013124
  11 H :    0.164265
Sum of atomic charges:    0.0000000

LOEWDIN ATOMIC CHARGES
----------------------
   0 C :   -0.052591
   1 C :   -0.045284
   2 C :    0.020834
   3 O :   -0.090883
   4 H :    0.006874
   5 H :    0.023823
   6 H :    0.021065
   7 H :    0.021059
   8 H :    0.017771
   9 H :    0.026457
  10 H :    0.003913
  11 H :    0.046962

  Mayer bond orders larger than 0.1
B(  0-C ,  1-C ) :   1.0545 B(  0-C ,  7-H ) :   0.9846 B(  0-C ,  8-H ) :   0.9814
B(  0-C ,  9-H ) :   0.9801 B(  1-C ,  2-C ) :   1.0576 B(  1-C ,  5-H ) :   0.9658
B(  1-C ,  6-H ) :   0.9686 B(  2-C ,  3-O ) :   0.9898 B(  2-C ,  4-H ) :   0.9731
B(  2-C , 10-H ) :   0.9657 B(  3-O , 11-H ) :   0.9997

E(0)                                       ...   -193.129401033
E(0)                                       ...   -193.129401033
E(CORR)(strong-pairs)                      ...     -0.675274863
E(CORR)(weak-pairs)                        ...     -0.000157685
E(CORR)(corrected)                         ...     -0.675432548
E(TOT)                                     ...   -193.804833581
E(CCSD(T))                                 ...   -193.821727896
FINAL SINGLE POINT ENERGY      -193.821727896365

DIPOLE MOMENT
-------------
                                X             Y             Z
Electronic contribution:     -3.07696      -0.71889      -0.57818
Nuclear contribution   :      2.78943       1.12418       0.98404
                        -----------------------------------------
Total Dipole Moment    :     -0.28754       0.40529       0.40586
                        -----------------------------------------
Magnitude (a.u.)       :      0.64161
Magnitude (Debye)      :      1.63084

Rotational constants in cm-1:     0.480261     0.167930     0.142337
Rotational constants in MHz : 14397.865595  5034.428188  4267.145015

                             ****ORCA TERMINATED NORMALLY****
TOTAL RUN TIME: 0 days 0 hours 0 minutes 26 seconds 905 msec
