                         Program Version 4.1.x  -  STABLE  -
|  1> ! RHF DLPNO-CCSD(T) cc-pVDZ RIJK cc-pVTZ/JK cc-pVDZ/C
|  2> ! KDIIS SOSCF TightSCF TightPNO
|  3>
|  4> %pal nprocs 4 end
|  5>
|  6> %maxcore 8000
|  7>
|  8> %scf maxiter 300
|  9>      shift shift 0.2 erroff 0.1 end
| 10> end
| 11>
| 12> * xyzfile 0 1 1_propanol_aa.xyz
| 13>
| 14>
| 15>                          ****END OF INPUT****

CARTESIAN COORDINATES (ANGSTROEM)
---------------------------------
  C     -1.903050    0.143970   -0.000010
  C     -0.524080   -0.525160    0.000010
  C      0.615310    0.484710    0.000000
  O      1.851860   -0.234880   -0.000010
  H      0.544350    1.130010    0.889750
  H     -0.415300   -1.171090   -0.879710
  H     -0.415310   -1.171080    0.879730
  H     -2.701550   -0.604810   -0.000010
  H     -2.042730    0.775910    0.885180
  H     -2.042720    0.775910   -0.885190
  H      0.544350    1.130030   -0.889730
  H      2.584950    0.392980    0.000020

 Total Charge           Charge          ....    0
 Multiplicity           Mult            ....    1
 Number of Electrons    NEL             ....   34
 Basis Dimension        Dim             ....   96

ORBITAL ENERGIES
----------------

  NO   OCC          E(Eh)            E(eV)
   0   2.0000     -20.547333      -559.1214
   1   2.0000     -11.275656      -306.8262
   2   2.0000     -11.223543      -305.4081
   3   2.0000     -11.222170      -305.3708
   4   2.0000      -1.345501       -36.6129
   5   2.0000      -1.048422       -28.5290
   6   2.0000      -0.912873       -24.8405
   7   2.0000      -0.800939       -21.7947
   8   2.0000      -0.680223       -18.5098
   9   2.0000      -0.648930       -17.6583
  10   2.0000      -0.592345       -16.1185
  11   2.0000      -0.568206       -15.4617
  12   2.0000      -0.523471       -14.2444
  13   2.0000      -0.501653       -13.6507
  14   2.0000      -0.482075       -13.1179
  15   2.0000      -0.466141       -12.6843
  16   2.0000      -0.435090       -11.8394
  17   0.0000       0.183373         4.9898
  18   0.0000       0.192645         5.2421
  19   0.0000       0.229295         6.2394
  20   0.0000       0.237689         6.4679
  21   0.0000       0.257119         6.9966

MULLIKEN ATOMIC CHARGES
-----------------------
   0 C :   -0.063019
   1 C :   -0.102855
   2 C :    0.199882
   3 O :   -0.391871
   4 H :    0.013187
   5 H :    0.036573
   6 H :    0.036573
   7 H :    0.036293
   8 H :    0.029815
   9 H :    0.029816
  10 H :    0.013189
  11 H :    0.162417
Sum of atomic charges:    0.0000000

LOEWDIN ATOMIC CHARGES
----------------------
   0 C :   -0.054279
   1 C :   -0.042769
   2 C :    0.019706
   3 O :   -0.089096
   4 H :    0.004013
   5 H :    0.023433
   6 H :    0.023433
   7 H :    0.025154
   8 H :    0.019751
   9 H :    0.019750
  10 H :    0.004013
  11 H :    0.046892

  Mayer bond orders larger than 0.1
B(  0-C ,  1-C ) :   1.0544 B(  0-C ,  7-H ) :   0.9845 B(  0-C ,  8-H ) :   0.9806
B(  0-C ,  9-H ) :   0.9806 B(  1-C ,  2-C ) :   1.0504 B(  1-C ,  5-H ) :   0.9678
B(  1-C ,  6-H ) :   0.9678 B(  2-C ,  3-O ) :   0.9991 B(  2-C ,  4-H ) :   0.9676
B(  2-C , 10-H ) :   0.9676 B(  3-O , 11-H ) :   0.9992

E(0)                                       ...   -193.129103629
E(0)                                       ...   -193.129103629
E(CORR)(strong-pairs)                      ...     -0.674886057
E(CORR)(weak-pairs)                        ...     -0.000157249
E(CORR)(corrected)                         ...     -0.675043306
E(TOT)                                     ...   -193.804146935
E(CCSD(T))                                 ...   -193.821002664
FINAL SINGLE POINT ENERGY      -193.821002664230

DIPOLE MOMENT
-------------
                                X             Y             Z
Electronic contribution:      4.08814      -0.70397      -0.00003
Nuclear contribution   :     -4.15960       1.33261       0.00005
                        -----------------------------------------
Total Dipole Moment    :     -0.07146       0.62864       0.00002
                        -----------------------------------------
Magnitude (a.u.)       :      0.63269
Magnitude (Debye)      :      1.60816

Rotational constants in cm-1:     0.885781     0.125646     0.117289
Rotational constants in MHz : 26555.031664  3766.784246  3516.241097

                             ****ORCA TERMINATED NORMALLY****
TOTAL RUN TIME: 0 days 0 hours 0 minutes 25 seconds 118 msec
