                         Program Version 4.1.x  -  STABLE  -
|  1> ! RHF DLPNO-CCSD(T) cc-pVDZ RIJK cc-pVTZ/JK cc-pVDZ/C
|  2> ! KDIIS SOSCF TightSCF TightPNO
|  3>
|  4> %pal nprocs 4 end
|  5>
|  6> %maxcore 8000
|  7>
|  8> %scf maxiter 300
|  9>      shift shift 0.2 erroff 0.1 end
| 10> end
| 11>
| 12> * xyzfile 0 1 2_1_Ad_N_Me_piperidine_eq_ax.xyz
| 13>
| 14>
| 15>                          ****END OF INPUT****

CARTESIAN COORDINATES (ANGSTROEM)
---------------------------------
  N      1.998130    1.019350   -0.347890
  C      1.234120   -0.254500   -0.310960
  C      1.925070   -1.294940    0.603610
  C      3.362350   -1.563470    0.117910
  C      4.155970   -0.256340   -0.037100
  C      3.352180    0.765860   -0.862620
  C     -0.311890   -0.114870   -0.115860
  C     -0.989450   -1.391800   -0.701150
  C     -2.527410   -1.311610   -0.614940
  C     -3.022360   -0.088570   -1.412380
  C     -2.386840    1.188400   -0.827400
  C     -0.849890    1.097350   -0.921200
  C     -2.802680    1.336110    0.651230
  C     -2.317450    0.106850    1.447790
  C     -2.951280   -1.169380    0.860560
  C     -0.777930    0.009100    1.362880
  C      2.012740    1.829930    0.868390
  H     -4.118120   -0.024460   -1.366780
  H     -2.751430   -0.193510   -2.471810
  H     -2.958110   -2.229160   -1.037580
  H     -0.686260   -1.513910   -1.750350
  H     -0.643820   -2.284970   -0.165540
  H     -2.729690    2.063760   -1.394870
  H     -0.399750    2.026710   -0.558800
  H     -0.539680    1.000420   -1.970460
  H     -2.628970   -2.049380    1.434100
  H     -4.046010   -1.120770    0.937800
  H     -2.609720    0.211740    2.501170
  H     -0.437560   -0.863610    1.934710
  H     -0.337520    0.889340    1.842070
  H     -3.894280    1.430330    0.731000
  H     -2.371590    2.253860    1.074370
  H      1.337470   -0.635260   -1.339040
  H      1.360720   -2.233970    0.617500
  H      1.948370   -0.931980    1.638800
  H      3.317120   -2.073430   -0.855980
  H      3.876900   -2.247960    0.803600
  H      5.123030   -0.446010   -0.520750
  H      4.379180    0.161700    0.953860
  H      3.251790    0.395970   -1.892950
  H      3.883810    1.723080   -0.919310
  H      2.337670    1.305200    1.783680
  H      2.694840    2.672330    0.712770
  H      1.023260    2.249720    1.061470

 Total Charge           Charge          ....    0
 Multiplicity           Mult            ....    1
 Number of Electrons    NEL             ....  130
 Basis Dimension        Dim             ....  373

ORBITAL ENERGIES
----------------

  NO   OCC          E(Eh)            E(eV)
   0   2.0000     -15.537478      -422.7963
   1   2.0000     -11.249213      -306.1066
   2   2.0000     -11.245234      -305.9984
   3   2.0000     -11.242939      -305.9359
   4   2.0000     -11.229676      -305.5750
   5   2.0000     -11.221631      -305.3561
   6   2.0000     -11.220688      -305.3304
   7   2.0000     -11.220524      -305.3260
   8   2.0000     -11.218472      -305.2701
   9   2.0000     -11.217889      -305.2543
  10   2.0000     -11.216928      -305.2281
  11   2.0000     -11.215532      -305.1901
  12   2.0000     -11.214894      -305.1728
  13   2.0000     -11.214459      -305.1609
  14   2.0000     -11.214229      -305.1547
  15   2.0000     -11.213483      -305.1344
  16   2.0000     -11.208752      -305.0056
  17   2.0000      -1.220229       -33.2041
  18   2.0000      -1.156127       -31.4598
  19   2.0000      -1.061429       -28.8830
  20   2.0000      -1.050750       -28.5924
  21   2.0000      -1.030900       -28.0522
  22   2.0000      -1.029466       -28.0132
  23   2.0000      -0.983928       -26.7740
  24   2.0000      -0.937688       -25.5158
  25   2.0000      -0.902690       -24.5634
  26   2.0000      -0.901434       -24.5293
  27   2.0000      -0.844580       -22.9822
  28   2.0000      -0.832951       -22.6657
  29   2.0000      -0.791183       -21.5292
  30   2.0000      -0.786581       -21.4040
  31   2.0000      -0.771363       -20.9898
  32   2.0000      -0.735281       -20.0080
  33   2.0000      -0.696733       -18.9591
  34   2.0000      -0.647890       -17.6300
  35   2.0000      -0.632176       -17.2024
  36   2.0000      -0.621069       -16.9001
  37   2.0000      -0.613205       -16.6862
  38   2.0000      -0.606831       -16.5127
  39   2.0000      -0.603013       -16.4088
  40   2.0000      -0.600854       -16.3501
  41   2.0000      -0.579776       -15.7765
  42   2.0000      -0.569216       -15.4891
  43   2.0000      -0.560962       -15.2645
  44   2.0000      -0.553810       -15.0699
  45   2.0000      -0.547865       -14.9082
  46   2.0000      -0.544178       -14.8078
  47   2.0000      -0.535096       -14.5607
  48   2.0000      -0.530829       -14.4446
  49   2.0000      -0.519617       -14.1395
  50   2.0000      -0.508177       -13.8282
  51   2.0000      -0.493957       -13.4412
  52   2.0000      -0.484469       -13.1831
  53   2.0000      -0.479406       -13.0453
  54   2.0000      -0.458182       -12.4678
  55   2.0000      -0.455802       -12.4030
  56   2.0000      -0.453784       -12.3481
  57   2.0000      -0.453187       -12.3318
  58   2.0000      -0.449070       -12.2198
  59   2.0000      -0.441995       -12.0273
  60   2.0000      -0.440290       -11.9809
  61   2.0000      -0.396179       -10.7806
  62   2.0000      -0.396081       -10.7779
  63   2.0000      -0.392112       -10.6699
  64   2.0000      -0.330723        -8.9994
  65   0.0000       0.166257         4.5241
  66   0.0000       0.184688         5.0256
  67   0.0000       0.194361         5.2888
  68   0.0000       0.205366         5.5883
  69   0.0000       0.216416         5.8890

MULLIKEN ATOMIC CHARGES
-----------------------
   0 N :   -0.510566
   1 C :    0.111317
   2 C :    0.003736
   3 C :   -0.020896
   4 C :   -0.053246
   5 C :    0.135077
   6 C :   -0.453563
   7 C :    0.118443
   8 C :   -0.147475
   9 C :    0.080291
  10 C :   -0.156418
  11 C :    0.159344
  12 C :    0.077353
  13 C :   -0.151576
  14 C :    0.078596
  15 C :    0.120135
  16 C :    0.114768
  17 H :    0.016215
  18 H :    0.017575
  19 H :    0.000115
  20 H :    0.017809
  21 H :    0.021669
  22 H :    0.000066
  23 H :    0.027195
  24 H :    0.015096
  25 H :    0.016211
  26 H :    0.017394
  27 H :   -0.000268
  28 H :    0.021369
  29 H :    0.019659
  30 H :    0.016918
  31 H :    0.015756
  32 H :    0.012811
  33 H :    0.023929
  34 H :    0.029511
  35 H :    0.019952
  36 H :    0.020980
  37 H :    0.021861
  38 H :    0.024411
  39 H :    0.023202
  40 H :    0.023248
  41 H :    0.009222
  42 H :    0.028910
  43 H :    0.033864
Sum of atomic charges:    0.0000000

LOEWDIN ATOMIC CHARGES
----------------------
   0 N :   -0.031169
   1 C :   -0.004400
   2 C :   -0.034985
   3 C :   -0.029978
   4 C :   -0.044908
   5 C :   -0.006613
   6 C :   -0.047902
   7 C :   -0.009592
   8 C :   -0.030300
   9 C :   -0.018606
  10 C :   -0.031308
  11 C :   -0.006746
  12 C :   -0.018372
  13 C :   -0.029501
  14 C :   -0.018709
  15 C :   -0.014643
  16 C :   -0.022995
  17 H :    0.014408
  18 H :    0.015067
  19 H :    0.015251
  20 H :    0.014215
  21 H :    0.012978
  22 H :    0.015299
  23 H :    0.018016
  24 H :    0.016998
  25 H :    0.014473
  26 H :    0.015008
  27 H :    0.015048
  28 H :    0.014979
  29 H :    0.014264
  30 H :    0.014787
  31 H :    0.014314
  32 H :    0.016677
  33 H :    0.017278
  34 H :    0.014205
  35 H :    0.015559
  36 H :    0.017941
  37 H :    0.019388
  38 H :    0.015226
  39 H :    0.014790
  40 H :    0.015684
  41 H :   -0.002964
  42 H :    0.019666
  43 H :    0.012175

  Mayer bond orders larger than 0.1
B(  0-N ,  1-C ) :   0.9794 B(  0-N ,  5-C ) :   1.0116 B(  0-N , 16-C ) :   0.9989
B(  1-C ,  2-C ) :   1.0226 B(  1-C ,  6-C ) :   1.0683 B(  1-C , 32-H ) :   0.9387
B(  2-C ,  3-C ) :   1.0560 B(  2-C , 33-H ) :   0.9605 B(  2-C , 34-H ) :   0.9536
B(  3-C ,  4-C ) :   1.0424 B(  3-C , 35-H ) :   0.9633 B(  3-C , 36-H ) :   0.9727
B(  4-C ,  5-C ) :   1.0332 B(  4-C , 37-H ) :   0.9700 B(  4-C , 38-H ) :   0.9630
B(  5-C , 39-H ) :   0.9705 B(  5-C , 40-H ) :   0.9781 B(  6-C ,  7-C ) :   1.0053
B(  6-C , 11-C ) :   1.0084 B(  6-C , 15-C ) :   0.9901 B(  7-C ,  8-C ) :   1.0338
B(  7-C , 20-H ) :   0.9585 B(  7-C , 21-H ) :   0.9602 B(  8-C ,  9-C ) :   1.0253
B(  8-C , 14-C ) :   1.0243 B(  8-C , 19-H ) :   0.9652 B(  9-C , 10-C ) :   1.0240
B(  9-C , 17-H ) :   0.9666 B(  9-C , 18-H ) :   0.9663 B( 10-C , 11-C ) :   1.0281
B( 10-C , 12-C ) :   1.0232 B( 10-C , 22-H ) :   0.9659 B( 11-C , 23-H ) :   0.9588
B( 11-C , 24-H ) :   0.9591 B( 12-C , 13-C ) :   1.0247 B( 12-C , 30-H ) :   0.9667
B( 12-C , 31-H ) :   0.9670 B( 13-C , 14-C ) :   1.0251 B( 13-C , 15-C ) :   1.0355
B( 13-C , 27-H ) :   0.9651 B( 14-C , 25-H ) :   0.9665 B( 14-C , 26-H ) :   0.9666
B( 15-C , 28-H ) :   0.9584 B( 15-C , 29-H ) :   0.9610 B( 16-C , 41-H ) :   0.9726
B( 16-C , 42-H ) :   0.9861 B( 16-C , 43-H ) :   0.9851

E(0)                                       ...   -676.111014836
E(0)                                       ...   -676.111014836
E(CORR)(strong-pairs)                      ...     -2.598488053
E(CORR)(weak-pairs)                        ...     -0.003321222
E(CORR)(corrected)                         ...     -2.601809274
E(TOT)                                     ...   -678.712824111
E(CCSD(T))                                 ...   -678.801499780
FINAL SINGLE POINT ENERGY      -678.801499779662

DIPOLE MOMENT
-------------
                                X             Y             Z
Electronic contribution:     -3.38590       0.33521      -1.68584
Nuclear contribution   :      3.54967      -0.47933       1.86265
                        -----------------------------------------
Total Dipole Moment    :      0.16376      -0.14413       0.17681
                        -----------------------------------------
Magnitude (a.u.)       :      0.28081
Magnitude (Debye)      :      0.71375

Rotational constants in cm-1:     0.034459     0.010541     0.009904
Rotational constants in MHz :  1033.040131   316.015817   296.921038

                             ****ORCA TERMINATED NORMALLY****
TOTAL RUN TIME: 0 days 0 hours 39 minutes 41 seconds 846 msec
