                         Program Version 4.1.x  -  STABLE  -
|  1> ! RHF DLPNO-CCSD(T) cc-pVDZ RIJK cc-pVTZ/JK cc-pVDZ/C
|  2> ! KDIIS SOSCF TightSCF TightPNO
|  3>
|  4> %pal nprocs 4 end
|  5>
|  6> %maxcore 8000
|  7>
|  8> %scf maxiter 300
|  9>      shift shift 0.2 erroff 0.1 end
| 10> end
| 11>
| 12> * xyzfile 0 1 2_1_Ad_N_Meax_pip_ecl.xyz
| 13>
| 14>
| 15>                          ****END OF INPUT****

CARTESIAN COORDINATES (ANGSTROEM)
---------------------------------
  C      2.373990    1.436220   -0.012350
  C      2.992310    0.767630    1.222600
  C      2.530540   -0.695270    1.261220
  C      0.838640    1.378840    0.075570
  C      0.993390   -0.742450    1.313660
  C      0.306450   -0.074940    0.074880
  C      2.835010    0.713260   -1.288450
  C      0.870400   -0.867110   -1.126540
  C      2.402600   -0.759910   -1.225310
  C      3.030170   -1.427500    0.007550
  C     -1.244470   -0.264900    0.293730
  C     -1.995040   -1.234040   -0.645580
  C     -3.404270   -1.510070   -0.088180
  C     -4.181370   -0.217470    0.191050
  N     -1.983490    1.005160    0.297740
  C     -3.302740    0.827300    0.902840
  H      2.707310    2.503640   -0.051700
  H      2.675350    1.300060    2.150620
  H      4.105880    0.824360    1.180600
  H      2.954750   -1.190660    2.170130
  H      0.472000    1.960860   -0.794550
  H      0.496120    1.915540    0.991230
  H      0.664230   -0.238630    2.253900
  H      0.680680   -1.810890    1.397970
  H      3.944190    0.783220   -1.388030
  H      2.398880    1.203000   -2.191200
  H      0.419060   -0.459390   -2.060840
  H      0.607500   -1.947940   -1.076730
  H      2.754050   -1.287660   -2.146960
  H      4.143730   -1.387540   -0.050560
  H      2.748290   -2.506280    0.051690
  H     -1.359370   -0.693590    1.316520
  H     -1.475940   -2.219830   -0.673920
  H     -2.041520   -0.870470   -1.697220
  H     -3.308410   -2.076330    0.869600
  H     -3.978760   -2.163810   -0.787900
  H     -5.080170   -0.442730    0.814450
  H     -4.586680    0.184860   -0.765860
  H     -3.835090    1.808120    0.942400
  H     -3.172520    0.522990    1.969230
  C     -2.131730    1.634930   -1.013870
  H     -2.311090    2.727500   -0.884830
  H     -1.244590    1.504910   -1.666970
  H     -2.976730    1.233350   -1.612070

 Total Charge           Charge          ....    0
 Multiplicity           Mult            ....    1
 Number of Electrons    NEL             ....  130
 Basis Dimension        Dim             ....  373

ORBITAL ENERGIES
----------------

  NO   OCC          E(Eh)            E(eV)
   0   2.0000     -15.538603      -422.8269
   1   2.0000     -11.253857      -306.2330
   2   2.0000     -11.250146      -306.1320
   3   2.0000     -11.246563      -306.0345
   4   2.0000     -11.233066      -305.6673
   5   2.0000     -11.226938      -305.5005
   6   2.0000     -11.222943      -305.3918
   7   2.0000     -11.222240      -305.3727
   8   2.0000     -11.221583      -305.3548
   9   2.0000     -11.220698      -305.3307
  10   2.0000     -11.220560      -305.3269
  11   2.0000     -11.219923      -305.3096
  12   2.0000     -11.218473      -305.2702
  13   2.0000     -11.218370      -305.2674
  14   2.0000     -11.218075      -305.2593
  15   2.0000     -11.216146      -305.2069
  16   2.0000     -11.214799      -305.1702
  17   2.0000      -1.229763       -33.4635
  18   2.0000      -1.159866       -31.5616
  19   2.0000      -1.058840       -28.8125
  20   2.0000      -1.050810       -28.5940
  21   2.0000      -1.031968       -28.0813
  22   2.0000      -1.029351       -28.0101
  23   2.0000      -0.986813       -26.8525
  24   2.0000      -0.934695       -25.4343
  25   2.0000      -0.901145       -24.5214
  26   2.0000      -0.896373       -24.3915
  27   2.0000      -0.843427       -22.9508
  28   2.0000      -0.831325       -22.6215
  29   2.0000      -0.786524       -21.4024
  30   2.0000      -0.783908       -21.3312
  31   2.0000      -0.769698       -20.9445
  32   2.0000      -0.730191       -19.8695
  33   2.0000      -0.694433       -18.8965
  34   2.0000      -0.646492       -17.5920
  35   2.0000      -0.634753       -17.2725
  36   2.0000      -0.620600       -16.8874
  37   2.0000      -0.610008       -16.5992
  38   2.0000      -0.604111       -16.4387
  39   2.0000      -0.602359       -16.3910
  40   2.0000      -0.597731       -16.2651
  41   2.0000      -0.578974       -15.7547
  42   2.0000      -0.563818       -15.3423
  43   2.0000      -0.556680       -15.1480
  44   2.0000      -0.551658       -15.0114
  45   2.0000      -0.547906       -14.9093
  46   2.0000      -0.538185       -14.6448
  47   2.0000      -0.532722       -14.4961
  48   2.0000      -0.530331       -14.4310
  49   2.0000      -0.520072       -14.1519
  50   2.0000      -0.505428       -13.7534
  51   2.0000      -0.491890       -13.3850
  52   2.0000      -0.486434       -13.2365
  53   2.0000      -0.482024       -13.1166
  54   2.0000      -0.459387       -12.5006
  55   2.0000      -0.452299       -12.3077
  56   2.0000      -0.450993       -12.2721
  57   2.0000      -0.449437       -12.2298
  58   2.0000      -0.447957       -12.1895
  59   2.0000      -0.439527       -11.9601
  60   2.0000      -0.435675       -11.8553
  61   2.0000      -0.401165       -10.9163
  62   2.0000      -0.395725       -10.7682
  63   2.0000      -0.387654       -10.5486
  64   2.0000      -0.331463        -9.0196
  65   0.0000       0.161602         4.3974
  66   0.0000       0.181218         4.9312
  67   0.0000       0.191138         5.2011
  68   0.0000       0.202607         5.5132
  69   0.0000       0.210566         5.7298

MULLIKEN ATOMIC CHARGES
-----------------------
   0 C :   -0.156135
   1 C :    0.068006
   2 C :   -0.145966
   3 C :    0.143894
   4 C :    0.083481
   5 C :   -0.451651
   6 C :    0.064829
   7 C :    0.107716
   8 C :   -0.138729
   9 C :    0.064438
  10 C :    0.138054
  11 C :   -0.048852
  12 C :   -0.017360
  13 C :   -0.075268
  14 N :   -0.485061
  15 C :    0.121172
  16 H :    0.006487
  17 H :    0.022692
  18 H :    0.019135
  19 H :    0.005750
  20 H :    0.022454
  21 H :    0.035974
  22 H :    0.026714
  23 H :    0.020437
  24 H :    0.021778
  25 H :    0.019967
  26 H :    0.018092
  27 H :    0.031359
  28 H :    0.006223
  29 H :    0.021306
  30 H :    0.020514
  31 H :    0.023704
  32 H :    0.028300
  33 H :    0.032510
  34 H :    0.024860
  35 H :    0.027893
  36 H :    0.026606
  37 H :    0.030901
  38 H :    0.028490
  39 H :    0.028212
  40 C :    0.076902
  41 H :    0.039908
  42 H :    0.043744
  43 H :    0.016517
Sum of atomic charges:   -0.0000000

LOEWDIN ATOMIC CHARGES
----------------------
   0 C :   -0.035941
   1 C :   -0.023178
   2 C :   -0.038072
   3 C :   -0.012914
   4 C :   -0.017167
   5 C :   -0.049663
   6 C :   -0.022106
   7 C :   -0.017888
   8 C :   -0.035094
   9 C :   -0.022663
  10 C :   -0.002440
  11 C :   -0.042650
  12 C :   -0.033930
  13 C :   -0.052698
  14 N :   -0.027217
  15 C :   -0.015080
  16 H :    0.019216
  17 H :    0.017971
  18 H :    0.015984
  19 H :    0.018210
  20 H :    0.016421
  21 H :    0.023738
  22 H :    0.016744
  23 H :    0.013833
  24 H :    0.017595
  25 H :    0.016611
  26 H :    0.012956
  27 H :    0.019462
  28 H :    0.018585
  29 H :    0.017034
  30 H :    0.016551
  31 H :    0.021870
  32 H :    0.019317
  33 H :    0.018779
  34 H :    0.018537
  35 H :    0.021867
  36 H :    0.022515
  37 H :    0.016012
  38 H :    0.020101
  39 H :    0.017591
  40 C :   -0.028587
  41 H :    0.020505
  42 H :    0.017922
  43 H :    0.001361

  Mayer bond orders larger than 0.1
B(  0-C ,  1-C ) :   1.0241 B(  0-C ,  3-C ) :   1.0313 B(  0-C ,  6-C ) :   1.0203
B(  0-C , 16-H ) :   0.9652 B(  1-C ,  2-C ) :   1.0235 B(  1-C , 17-H ) :   0.9666
B(  1-C , 18-H ) :   0.9668 B(  2-C ,  4-C ) :   1.0313 B(  2-C ,  9-C ) :   1.0229
B(  2-C , 19-H ) :   0.9656 B(  3-C ,  5-C ) :   1.0119 B(  3-C , 20-H ) :   0.9582
B(  3-C , 21-H ) :   0.9574 B(  4-C ,  5-C ) :   1.0076 B(  4-C , 22-H ) :   0.9618
B(  4-C , 23-H ) :   0.9633 B(  5-C ,  7-C ) :   1.0131 B(  5-C , 10-C ) :   1.0238
B(  6-C ,  8-C ) :   1.0238 B(  6-C , 24-H ) :   0.9664 B(  6-C , 25-H ) :   0.9680
B(  7-C ,  8-C ) :   1.0334 B(  7-C , 26-H ) :   0.9581 B(  7-C , 27-H ) :   0.9567
B(  8-C ,  9-C ) :   1.0222 B(  8-C , 28-H ) :   0.9640 B(  9-C , 29-H ) :   0.9673
B(  9-C , 30-H ) :   0.9673 B( 10-C , 11-C ) :   1.0387 B( 10-C , 14-N ) :   0.9780
B( 10-C , 31-H ) :   0.9532 B( 11-C , 12-C ) :   1.0489 B( 11-C , 32-H ) :   0.9605
B( 11-C , 33-H ) :   0.9577 B( 12-C , 13-C ) :   1.0381 B( 12-C , 34-H ) :   0.9633
B( 12-C , 35-H ) :   0.9724 B( 13-C , 15-C ) :   1.0318 B( 13-C , 36-H ) :   0.9702
B( 13-C , 37-H ) :   0.9642 B( 14-N , 15-C ) :   1.0141 B( 14-N , 40-C ) :   0.9923
B( 15-C , 38-H ) :   0.9783 B( 15-C , 39-H ) :   0.9706 B( 40-C , 41-H ) :   0.9886
B( 40-C , 42-H ) :   0.9849 B( 40-C , 43-H ) :   0.9742

E(0)                                       ...   -676.086384858
E(0)                                       ...   -676.086384858
E(CORR)(strong-pairs)                      ...     -2.607373312
E(CORR)(weak-pairs)                        ...     -0.003291854
E(CORR)(corrected)                         ...     -2.610665166
E(TOT)                                     ...   -678.697050023
E(CCSD(T))                                 ...   -678.786713531
FINAL SINGLE POINT ENERGY      -678.786713531449

DIPOLE MOMENT
-------------
                                X             Y             Z
Electronic contribution:      3.58220       0.67075       1.64799
Nuclear contribution   :     -3.77679      -0.85507      -1.81938
                        -----------------------------------------
Total Dipole Moment    :     -0.19459      -0.18432      -0.17140
                        -----------------------------------------
Magnitude (a.u.)       :      0.31815
Magnitude (Debye)      :      0.80867

Rotational constants in cm-1:     0.035187     0.010336     0.009814
Rotational constants in MHz :  1054.867373   309.860860   294.221732

                             ****ORCA TERMINATED NORMALLY****
TOTAL RUN TIME: 0 days 0 hours 42 minutes 14 seconds 234 msec
