                         Program Version 4.1.x  -  STABLE  -
|  1> ! RHF DLPNO-CCSD(T) cc-pVDZ RIJK cc-pVTZ/JK cc-pVDZ/C
|  2> ! KDIIS SOSCF TightSCF TightPNO
|  3>
|  4> %pal nprocs 4 end
|  5>
|  6> %maxcore 8000
|  7>
|  8> %scf maxiter 300
|  9>      shift shift 0.2 erroff 0.1 end
| 10> end
| 11>
| 12> * xyzfile 0 1 2_1_Ad_N_Me_piperidine_eq_eq.xyz
| 13>
| 14>
| 15>                          ****END OF INPUT****

CARTESIAN COORDINATES (ANGSTROEM)
---------------------------------
  N      2.055660    0.956050    0.225510
  C      1.282410   -0.131260   -0.442180
  C      1.883950   -1.496100   -0.025070
  C      3.394590   -1.612880   -0.241480
  C      4.108600   -0.461420    0.456740
  C      3.505700    0.853850   -0.018510
  C     -0.283940   -0.083350   -0.188350
  C     -0.934410   -1.477360   -0.461850
  C     -2.464400   -1.454180   -0.250820
  C     -3.120300   -0.440090   -1.204350
  C     -2.514700    0.948620   -0.936380
  C     -0.990750    0.898290   -1.174920
  C     -2.793780    1.364130    0.523570
  C     -2.164730    0.334120    1.485800
  C     -2.766690   -1.057380    1.207970
  C     -0.634810    0.294450    1.275930
  C      1.656360    2.320650   -0.116480
  H     -4.208110   -0.422590   -1.051540
  H     -2.946980   -0.732300   -2.249070
  H     -2.859250   -2.459580   -0.449240
  H     -0.706260   -1.800110   -1.487690
  H     -0.517640   -2.231780    0.212100
  H     -2.957090    1.685400   -1.620100
  H     -0.591920    1.910070   -1.096480
  H     -0.790010    0.566950   -2.203660
  H     -2.339720   -1.797590    1.898340
  H     -3.851480   -1.045950    1.380900
  H     -2.373660    0.626530    2.523430
  H     -0.184410   -0.436530    1.959760
  H     -0.202060    1.261900    1.544170
  H     -3.876710    1.430150    0.695860
  H     -2.379690    2.363330    0.717460
  H      1.416790   -0.040100   -1.542620
  H      1.394100   -2.288450   -0.594020
  H      1.661760   -1.672610    1.035560
  H      3.617300   -1.580500   -1.318170
  H      3.748320   -2.584980    0.123820
  H      5.184780   -0.466760    0.243750
  H      3.986940   -0.545370    1.544530
  H      3.731440    0.982480   -1.099280
  H      3.982250    1.690730    0.503180
  H      1.678420    2.518830   -1.205770
  H      0.662270    2.559060    0.256950
  H      2.352400    3.016770    0.361490

 Total Charge           Charge          ....    0
 Multiplicity           Mult            ....    1
 Number of Electrons    NEL             ....  130
 Basis Dimension        Dim             ....  373

ORBITAL ENERGIES
----------------

  NO   OCC          E(Eh)            E(eV)
   0   2.0000     -15.542705      -422.9385
   1   2.0000     -11.255173      -306.2688
   2   2.0000     -11.245228      -305.9982
   3   2.0000     -11.241959      -305.9092
   4   2.0000     -11.233466      -305.6782
   5   2.0000     -11.220510      -305.3256
   6   2.0000     -11.220188      -305.3168
   7   2.0000     -11.219316      -305.2931
   8   2.0000     -11.218893      -305.2816
   9   2.0000     -11.216928      -305.2281
  10   2.0000     -11.215868      -305.1993
  11   2.0000     -11.215687      -305.1944
  12   2.0000     -11.215165      -305.1801
  13   2.0000     -11.214181      -305.1534
  14   2.0000     -11.214110      -305.1515
  15   2.0000     -11.213154      -305.1254
  16   2.0000     -11.210660      -305.0576
  17   2.0000      -1.219752       -33.1911
  18   2.0000      -1.156278       -31.4639
  19   2.0000      -1.068496       -29.0753
  20   2.0000      -1.052412       -28.6376
  21   2.0000      -1.031443       -28.0670
  22   2.0000      -1.029876       -28.0243
  23   2.0000      -0.984775       -26.7971
  24   2.0000      -0.928974       -25.2787
  25   2.0000      -0.903450       -24.5841
  26   2.0000      -0.902641       -24.5621
  27   2.0000      -0.845710       -23.0129
  28   2.0000      -0.831207       -22.6183
  29   2.0000      -0.792087       -21.5538
  30   2.0000      -0.786741       -21.4083
  31   2.0000      -0.771588       -20.9960
  32   2.0000      -0.735570       -20.0159
  33   2.0000      -0.697313       -18.9749
  34   2.0000      -0.647453       -17.6181
  35   2.0000      -0.627582       -17.0774
  36   2.0000      -0.623423       -16.9642
  37   2.0000      -0.614855       -16.7310
  38   2.0000      -0.607722       -16.5369
  39   2.0000      -0.605331       -16.4719
  40   2.0000      -0.599635       -16.3169
  41   2.0000      -0.590899       -16.0792
  42   2.0000      -0.577223       -15.7070
  43   2.0000      -0.556211       -15.1353
  44   2.0000      -0.550990       -14.9932
  45   2.0000      -0.544471       -14.8158
  46   2.0000      -0.540203       -14.6997
  47   2.0000      -0.533594       -14.5198
  48   2.0000      -0.529881       -14.4188
  49   2.0000      -0.525664       -14.3041
  50   2.0000      -0.519186       -14.1278
  51   2.0000      -0.499484       -13.5917
  52   2.0000      -0.486509       -13.2386
  53   2.0000      -0.462702       -12.5908
  54   2.0000      -0.458140       -12.4666
  55   2.0000      -0.457553       -12.4507
  56   2.0000      -0.453223       -12.3328
  57   2.0000      -0.452156       -12.3038
  58   2.0000      -0.447458       -12.1760
  59   2.0000      -0.441561       -12.0155
  60   2.0000      -0.430836       -11.7236
  61   2.0000      -0.397066       -10.8047
  62   2.0000      -0.391937       -10.6652
  63   2.0000      -0.390962       -10.6386
  64   2.0000      -0.344491        -9.3741
  65   0.0000       0.167837         4.5671
  66   0.0000       0.188408         5.1268
  67   0.0000       0.196558         5.3486
  68   0.0000       0.202966         5.5230
  69   0.0000       0.215851         5.8736

MULLIKEN ATOMIC CHARGES
-----------------------
   0 N :   -0.518800
   1 C :    0.141374
   2 C :   -0.012305
   3 C :   -0.013977
   4 C :   -0.009428
   5 C :    0.115687
   6 C :   -0.474068
   7 C :    0.088123
   8 C :   -0.133549
   9 C :    0.083072
  10 C :   -0.153150
  11 C :    0.125635
  12 C :    0.075642
  13 C :   -0.159334
  14 C :    0.077605
  15 C :    0.163427
  16 C :    0.118094
  17 H :    0.016358
  18 H :    0.016521
  19 H :    0.000197
  20 H :    0.020072
  21 H :    0.029473
  22 H :   -0.000477
  23 H :    0.022544
  24 H :    0.015822
  25 H :    0.017089
  26 H :    0.016771
  27 H :    0.000387
  28 H :    0.017733
  29 H :    0.028808
  30 H :    0.017675
  31 H :    0.016076
  32 H :   -0.003590
  33 H :    0.035976
  34 H :    0.030631
  35 H :    0.018521
  36 H :    0.022005
  37 H :    0.020413
  38 H :    0.028441
  39 H :   -0.001302
  40 H :    0.026955
  41 H :    0.006774
  42 H :    0.037350
  43 H :    0.028731
Sum of atomic charges:   -0.0000000

LOEWDIN ATOMIC CHARGES
----------------------
   0 N :   -0.042427
   1 C :    0.008168
   2 C :   -0.028169
   3 C :   -0.032366
   4 C :   -0.034754
   5 C :   -0.005199
   6 C :   -0.043757
   7 C :   -0.012988
   8 C :   -0.029005
   9 C :   -0.019452
  10 C :   -0.030690
  11 C :   -0.014457
  12 C :   -0.018487
  13 C :   -0.030612
  14 C :   -0.018419
  15 C :   -0.009115
  16 C :   -0.019033
  17 H :    0.014523
  18 H :    0.014788
  19 H :    0.015489
  20 H :    0.013305
  21 H :    0.016634
  22 H :    0.015198
  23 H :    0.015269
  24 H :    0.013818
  25 H :    0.014811
  26 H :    0.014595
  27 H :    0.015377
  28 H :    0.015860
  29 H :    0.017780
  30 H :    0.015179
  31 H :    0.014130
  32 H :   -0.002624
  33 H :    0.022313
  34 H :    0.017139
  35 H :    0.015550
  36 H :    0.019190
  37 H :    0.020183
  38 H :    0.019345
  39 H :   -0.002992
  40 H :    0.017572
  41 H :   -0.000622
  42 H :    0.010421
  43 H :    0.018529

  Mayer bond orders larger than 0.1
B(  0-N ,  1-C ) :   0.9558 B(  0-N ,  5-C ) :   0.9861 B(  0-N , 16-C ) :   1.0089
B(  1-C ,  2-C ) :   1.0401 B(  1-C ,  6-C ) :   1.0575 B(  1-C , 32-H ) :   0.9326
B(  2-C ,  3-C ) :   1.0681 B(  2-C , 33-H ) :   0.9580 B(  2-C , 34-H ) :   0.9522
B(  3-C ,  4-C ) :   1.0511 B(  3-C , 35-H ) :   0.9603 B(  3-C , 36-H ) :   0.9689
B(  4-C ,  5-C ) :   1.0612 B(  4-C , 37-H ) :   0.9674 B(  4-C , 38-H ) :   0.9588
B(  5-C , 39-H ) :   0.9518 B(  5-C , 40-H ) :   0.9740 B(  6-C ,  7-C ) :   1.0164
B(  6-C , 11-C ) :   1.0092 B(  6-C , 15-C ) :   0.9806 B(  7-C ,  8-C ) :   1.0373
B(  7-C , 20-H ) :   0.9588 B(  7-C , 21-H ) :   0.9576 B(  8-C ,  9-C ) :   1.0263
B(  8-C , 14-C ) :   1.0241 B(  8-C , 19-H ) :   0.9634 B(  9-C , 10-C ) :   1.0256
B(  9-C , 17-H ) :   0.9662 B(  9-C , 18-H ) :   0.9657 B( 10-C , 11-C ) :   1.0326
B( 10-C , 12-C ) :   1.0246 B( 10-C , 22-H ) :   0.9651 B( 11-C , 23-H ) :   0.9623
B( 11-C , 24-H ) :   0.9573 B( 12-C , 13-C ) :   1.0238 B( 12-C , 30-H ) :   0.9667
B( 12-C , 31-H ) :   0.9667 B( 13-C , 14-C ) :   1.0238 B( 13-C , 15-C ) :   1.0307
B( 13-C , 27-H ) :   0.9665 B( 14-C , 25-H ) :   0.9664 B( 14-C , 26-H ) :   0.9665
B( 15-C , 28-H ) :   0.9591 B( 15-C , 29-H ) :   0.9598 B( 16-C , 41-H ) :   0.9714
B( 16-C , 42-H ) :   0.9832 B( 16-C , 43-H ) :   0.9857

E(0)                                       ...   -676.107065231
E(0)                                       ...   -676.107065231
E(CORR)(strong-pairs)                      ...     -2.599535746
E(CORR)(weak-pairs)                        ...     -0.003262796
E(CORR)(corrected)                         ...     -2.602798542
E(TOT)                                     ...   -678.709863773
E(CCSD(T))                                 ...   -678.798692795
FINAL SINGLE POINT ENERGY      -678.798692795064

DIPOLE MOMENT
-------------
                                X             Y             Z
Electronic contribution:     -2.69988      -0.53344       0.78705
Nuclear contribution   :      2.76562       0.53625      -0.95715
                        -----------------------------------------
Total Dipole Moment    :      0.06575       0.00281      -0.17010
                        -----------------------------------------
Magnitude (a.u.)       :      0.18239
Magnitude (Debye)      :      0.46359

Rotational constants in cm-1:     0.033090     0.010825     0.009757
Rotational constants in MHz :   992.027568   324.526416   292.510828

                             ****ORCA TERMINATED NORMALLY****
TOTAL RUN TIME: 0 days 0 hours 39 minutes 49 seconds 5 msec
