                         Program Version 4.1.x  -  STABLE  -
|  1> ! RHF DLPNO-CCSD(T) cc-pVDZ RIJK cc-pVTZ/JK cc-pVDZ/C
|  2> ! KDIIS SOSCF TightSCF TightPNO
|  3>
|  4> %pal nprocs 4 end
|  5>
|  6> %maxcore 8000
|  7>
|  8> %scf maxiter 300
|  9>      shift shift 0.2 erroff 0.1 end
| 10> end
| 11>
| 12> * xyzfile 0 1 2_1_Ad_N_Meax_pip.xyz
| 13>
| 14>
| 15>                          ****END OF INPUT****

CARTESIAN COORDINATES (ANGSTROEM)
---------------------------------
  C     -2.395180    1.208520   -0.776870
  C     -3.050720   -0.041360   -1.382210
  C     -2.546110   -1.279540   -0.626460
  C     -0.867020    1.104740   -0.912320
  C     -1.014270   -1.367100   -0.745030
  C     -0.308980   -0.117260   -0.143330
  C     -2.768480    1.325230    0.709830
  C     -0.752430   -0.045820    1.335900
  C     -2.282280    0.072900    1.456880
  C     -2.941930   -1.176870    0.854130
  C      1.237720   -0.238000   -0.351530
  C      1.920120   -1.294990    0.544770
  C      3.368000   -1.551010    0.102780
  C      4.139560   -0.230070    0.019440
  N      1.997380    1.020670   -0.377790
  C      3.361790    0.774730   -0.842490
  H     -2.758080    2.114970   -1.322790
  H     -2.800900   -0.121810   -2.466750
  H     -4.161920    0.030650   -1.310910
  H     -3.010430   -2.195810   -1.069510
  H     -0.426500    2.054210   -0.535360
  H     -0.587620    1.036740   -1.990070
  H     -0.749550   -1.485680   -1.822110
  H     -0.677220   -2.298390   -0.235560
  H     -3.873480    1.433760    0.820410
  H     -2.308100    2.240080    1.152770
  H     -0.294310    0.816270    1.864540
  H     -0.423400   -0.956610    1.886850
  H     -2.566290    0.152690    2.536000
  H     -4.051480   -1.117470    0.955960
  H     -2.616010   -2.090600    1.405470
  H      1.318930   -0.637870   -1.390850
  H      1.375000   -2.266070    0.506800
  H      1.914240   -0.978950    1.612390
  H      3.366970   -2.040660   -0.900530
  H      3.874980   -2.252680    0.808250
  H      5.150620   -0.408960   -0.419650
  H      4.308290    0.178140    1.043280
  H      3.925490    1.736160   -0.907450
  H      3.325820    0.397400   -1.892780
  C      2.016510    1.770390    0.871060
  H      2.696350    2.649630    0.791710
  H      1.024170    2.214670    1.093770
  H      2.344880    1.164360    1.743240

 Total Charge           Charge          ....    0
 Multiplicity           Mult            ....    1
 Number of Electrons    NEL             ....  130
 Basis Dimension        Dim             ....  373

ORBITAL ENERGIES
----------------

  NO   OCC          E(Eh)            E(eV)
   0   2.0000     -15.541267      -422.8994
   1   2.0000     -11.252827      -306.2050
   2   2.0000     -11.249766      -306.1217
   3   2.0000     -11.247559      -306.0617
   4   2.0000     -11.232672      -305.6565
   5   2.0000     -11.225435      -305.4596
   6   2.0000     -11.223088      -305.3958
   7   2.0000     -11.222837      -305.3889
   8   2.0000     -11.222125      -305.3695
   9   2.0000     -11.220597      -305.3280
  10   2.0000     -11.220447      -305.3239
  11   2.0000     -11.220217      -305.3176
  12   2.0000     -11.218643      -305.2748
  13   2.0000     -11.218462      -305.2699
  14   2.0000     -11.218003      -305.2574
  15   2.0000     -11.217246      -305.2368
  16   2.0000     -11.213788      -305.1427
  17   2.0000      -1.229619       -33.4596
  18   2.0000      -1.160604       -31.5816
  19   2.0000      -1.062655       -28.9163
  20   2.0000      -1.052799       -28.6481
  21   2.0000      -1.032024       -28.0828
  22   2.0000      -1.030482       -28.0409
  23   2.0000      -0.984135       -26.7797
  24   2.0000      -0.935075       -25.4447
  25   2.0000      -0.900419       -24.5016
  26   2.0000      -0.898509       -24.4497
  27   2.0000      -0.843252       -22.9461
  28   2.0000      -0.831835       -22.6354
  29   2.0000      -0.787998       -21.4425
  30   2.0000      -0.783481       -21.3196
  31   2.0000      -0.769621       -20.9424
  32   2.0000      -0.732177       -19.9235
  33   2.0000      -0.694958       -18.9108
  34   2.0000      -0.647470       -17.6186
  35   2.0000      -0.631731       -17.1903
  36   2.0000      -0.617853       -16.8126
  37   2.0000      -0.612167       -16.6579
  38   2.0000      -0.604435       -16.4475
  39   2.0000      -0.601076       -16.3561
  40   2.0000      -0.599861       -16.3231
  41   2.0000      -0.578244       -15.7348
  42   2.0000      -0.568038       -15.4571
  43   2.0000      -0.561532       -15.2801
  44   2.0000      -0.553071       -15.0498
  45   2.0000      -0.547537       -14.8993
  46   2.0000      -0.540769       -14.7151
  47   2.0000      -0.533255       -14.5106
  48   2.0000      -0.528281       -14.3753
  49   2.0000      -0.520365       -14.1598
  50   2.0000      -0.507956       -13.8222
  51   2.0000      -0.492218       -13.3939
  52   2.0000      -0.483428       -13.1547
  53   2.0000      -0.477269       -12.9872
  54   2.0000      -0.456832       -12.4310
  55   2.0000      -0.455472       -12.3940
  56   2.0000      -0.453106       -12.3296
  57   2.0000      -0.451285       -12.2801
  58   2.0000      -0.446901       -12.1608
  59   2.0000      -0.441646       -12.0178
  60   2.0000      -0.439030       -11.9466
  61   2.0000      -0.396935       -10.8011
  62   2.0000      -0.396057       -10.7773
  63   2.0000      -0.392130       -10.6704
  64   2.0000      -0.334738        -9.1087
  65   0.0000       0.163070         4.4374
  66   0.0000       0.182861         4.9759
  67   0.0000       0.191655         5.2152
  68   0.0000       0.203031         5.5248
  69   0.0000       0.213883         5.8201

MULLIKEN ATOMIC CHARGES
-----------------------
   0 C :   -0.161100
   1 C :    0.067616
   2 C :   -0.152931
   3 C :    0.145240
   4 C :    0.107361
   5 C :   -0.444717
   6 C :    0.066048
   7 C :    0.104734
   8 C :   -0.154279
   9 C :    0.065789
  10 C :    0.114559
  11 C :   -0.022600
  12 C :   -0.023155
  13 C :   -0.068675
  14 N :   -0.484625
  15 C :    0.118564
  16 H :    0.006200
  17 H :    0.022004
  18 H :    0.020057
  19 H :    0.006507
  20 H :    0.032221
  21 H :    0.021861
  22 H :    0.022837
  23 H :    0.026158
  24 H :    0.021497
  25 H :    0.020203
  26 H :    0.025133
  27 H :    0.027610
  28 H :    0.005602
  29 H :    0.021366
  30 H :    0.020570
  31 H :    0.017594
  32 H :    0.029831
  33 H :    0.034545
  34 H :    0.023612
  35 H :    0.025937
  36 H :    0.025572
  37 H :    0.029518
  38 H :    0.029432
  39 H :    0.026243
  40 C :    0.090493
  41 H :    0.034823
  42 H :    0.039387
  43 H :    0.015354
Sum of atomic charges:   -0.0000000

LOEWDIN ATOMIC CHARGES
----------------------
   0 C :   -0.037565
   1 C :   -0.022861
   2 C :   -0.036060
   3 C :   -0.009531
   4 C :   -0.011849
   5 C :   -0.052296
   6 C :   -0.021945
   7 C :   -0.018448
   8 C :   -0.035475
   9 C :   -0.022597
  10 C :   -0.010378
  11 C :   -0.041125
  12 C :   -0.034573
  13 C :   -0.050704
  14 N :   -0.024614
  15 C :   -0.014042
  16 H :    0.018622
  17 H :    0.017573
  18 H :    0.016484
  19 H :    0.018732
  20 H :    0.020692
  21 H :    0.019956
  22 H :    0.016572
  23 H :    0.015578
  24 H :    0.017436
  25 H :    0.016816
  26 H :    0.016967
  27 H :    0.018423
  28 H :    0.018275
  29 H :    0.017173
  30 H :    0.016833
  31 H :    0.019761
  32 H :    0.020829
  33 H :    0.016358
  34 H :    0.017423
  35 H :    0.020639
  36 H :    0.021666
  37 H :    0.017719
  38 H :    0.019071
  39 H :    0.017168
  40 C :   -0.028303
  41 H :    0.022307
  42 H :    0.014955
  43 H :   -0.001661

  Mayer bond orders larger than 0.1
B(  0-C ,  1-C ) :   1.0225 B(  0-C ,  3-C ) :   1.0270 B(  0-C ,  6-C ) :   1.0218
B(  0-C , 16-H ) :   0.9663 B(  1-C ,  2-C ) :   1.0238 B(  1-C , 17-H ) :   0.9669
B(  1-C , 18-H ) :   0.9670 B(  2-C ,  4-C ) :   1.0324 B(  2-C ,  9-C ) :   1.0229
B(  2-C , 19-H ) :   0.9657 B(  3-C ,  5-C ) :   1.0093 B(  3-C , 20-H ) :   0.9592
B(  3-C , 21-H ) :   0.9606 B(  4-C ,  5-C ) :   1.0063 B(  4-C , 22-H ) :   0.9591
B(  4-C , 23-H ) :   0.9609 B(  5-C ,  7-C ) :   0.9888 B(  5-C , 10-C ) :   1.0684
B(  6-C ,  8-C ) :   1.0236 B(  6-C , 24-H ) :   0.9670 B(  6-C , 25-H ) :   0.9676
B(  7-C ,  8-C ) :   1.0348 B(  7-C , 26-H ) :   0.9618 B(  7-C , 27-H ) :   0.9595
B(  8-C ,  9-C ) :   1.0237 B(  8-C , 28-H ) :   0.9654 B(  9-C , 29-H ) :   0.9671
B(  9-C , 30-H ) :   0.9672 B( 10-C , 11-C ) :   1.0233 B( 10-C , 14-N ) :   0.9854
B( 10-C , 31-H ) :   0.9390 B( 11-C , 12-C ) :   1.0552 B( 11-C , 32-H ) :   0.9611
B( 11-C , 33-H ) :   0.9538 B( 12-C , 13-C ) :   1.0384 B( 12-C , 34-H ) :   0.9633
B( 12-C , 35-H ) :   0.9730 B( 13-C , 15-C ) :   1.0315 B( 13-C , 36-H ) :   0.9708
B( 13-C , 37-H ) :   0.9633 B( 14-N , 15-C ) :   1.0147 B( 14-N , 40-C ) :   0.9982
B( 15-C , 38-H ) :   0.9794 B( 15-C , 39-H ) :   0.9713 B( 40-C , 41-H ) :   0.9865
B( 40-C , 42-H ) :   0.9847 B( 40-C , 43-H ) :   0.9721

E(0)                                       ...   -676.101408000
E(0)                                       ...   -676.101408000
E(CORR)(strong-pairs)                      ...     -2.606203571
E(CORR)(weak-pairs)                        ...     -0.003295487
E(CORR)(corrected)                         ...     -2.609499058
E(TOT)                                     ...   -678.710907058
E(CCSD(T))                                 ...   -678.800424506
FINAL SINGLE POINT ENERGY      -678.800424506473

DIPOLE MOMENT
-------------
                                X             Y             Z
Electronic contribution:     -3.31649       0.50888      -1.84959
Nuclear contribution   :      3.48567      -0.65462       2.04497
                        -----------------------------------------
Total Dipole Moment    :      0.16919      -0.14574       0.19538
                        -----------------------------------------
Magnitude (a.u.)       :      0.29671
Magnitude (Debye)      :      0.75418

Rotational constants in cm-1:     0.034851     0.010547     0.009930
Rotational constants in MHz :  1044.815362   316.182123   297.684599

                             ****ORCA TERMINATED NORMALLY****
TOTAL RUN TIME: 0 days 0 hours 42 minutes 39 seconds 97 msec
