                         Program Version 4.1.x  -  STABLE  -
|  1> ! RHF DLPNO-CCSD(T) cc-pVDZ RIJK cc-pVTZ/JK cc-pVDZ/C
|  2> ! KDIIS SOSCF TightSCF TightPNO
|  3>
|  4> %pal nprocs 4 end
|  5>
|  6> %maxcore 8000
|  7>
|  8> %scf maxiter 300
|  9>      shift shift 0.2 erroff 0.1 end
| 10> end
| 11>
| 12> * xyzfile 0 1 2_2_Ad_N_Me_piperidine_eq_ax.xyz
| 13>
| 14>
| 15>                          ****END OF INPUT****

CARTESIAN COORDINATES (ANGSTROEM)
---------------------------------
  C      1.435160    0.573700    1.640990
  C      2.353750   -0.640500    1.389330
  C      3.594470   -0.185600    0.590450
  C      3.148650    0.421170   -0.757240
  C      2.227260    1.630490   -0.495360
  C      0.978920    1.178720    0.294070
  C      1.580170   -1.701020    0.576610
  C      1.123320   -1.096930   -0.770350
  C      2.372090   -0.642030   -1.560370
  C      0.195020    0.133050   -0.550500
  C     -1.196980   -0.205560    0.038680
  C     -1.990990   -1.254210   -0.777050
  C     -3.331730   -1.586280   -0.094340
  C     -4.134410   -0.317160    0.231010
  C     -3.246760    0.691340    0.982880
  N     -1.997260    1.020220    0.285520
  C     -2.210350    1.892580   -0.868550
  H     -1.047200   -0.637010    1.038550
  H     -1.407410   -2.174540   -0.886400
  H     -2.169790   -0.876010   -1.793420
  H     -3.126420   -2.127630    0.841620
  H     -3.920360   -2.266160   -0.722860
  H     -5.016160   -0.561760    0.837700
  H     -4.508340    0.135810   -0.697150
  H     -2.978290    0.270700    1.962960
  H     -3.791240    1.623910    1.174850
  H     -2.727630    1.424040   -1.724220
  H     -2.812320    2.749590   -0.548180
  H     -1.256510    2.283960   -1.232490
  H      4.162770    0.556290    1.168320
  H      4.265110   -1.038680    0.416470
  H      4.030780    0.742290   -1.327230
  H      3.017810   -1.508080   -1.761660
  H      2.070920   -0.235500   -2.535630
  H      2.671040   -1.070420    2.348830
  H      0.721320   -2.066500    1.154500
  H      2.221950   -2.572760    0.387370
  H      1.927310    2.088920   -1.448190
  H      2.768700    2.400730    0.071300
  H      0.331730    2.039080    0.491950
  H      0.023800    0.571360   -1.545060
  H      1.973050    1.338070    2.218740
  H      0.569150    0.279770    2.246300
  H      0.601620   -1.861430   -1.357150

 Total Charge           Charge          ....    0
 Multiplicity           Mult            ....    1
 Number of Electrons    NEL             ....  130
 Basis Dimension        Dim             ....  373

ORBITAL ENERGIES
----------------

  NO   OCC          E(Eh)            E(eV)
   0   2.0000     -15.537935      -422.8087
   1   2.0000     -11.248677      -306.0921
   2   2.0000     -11.245755      -306.0126
   3   2.0000     -11.243614      -305.9543
   4   2.0000     -11.222166      -305.3707
   5   2.0000     -11.221569      -305.3544
   6   2.0000     -11.219709      -305.3038
   7   2.0000     -11.219208      -305.2902
   8   2.0000     -11.219185      -305.2895
   9   2.0000     -11.218660      -305.2753
  10   2.0000     -11.217555      -305.2452
  11   2.0000     -11.215500      -305.1893
  12   2.0000     -11.215304      -305.1839
  13   2.0000     -11.214485      -305.1616
  14   2.0000     -11.214030      -305.1493
  15   2.0000     -11.212989      -305.1209
  16   2.0000     -11.211339      -305.0760
  17   2.0000      -1.221339       -33.2343
  18   2.0000      -1.155262       -31.4363
  19   2.0000      -1.060214       -28.8499
  20   2.0000      -1.049042       -28.5459
  21   2.0000      -1.029684       -28.0191
  22   2.0000      -1.028531       -27.9877
  23   2.0000      -0.992613       -27.0104
  24   2.0000      -0.939319       -25.5602
  25   2.0000      -0.900589       -24.5063
  26   2.0000      -0.899522       -24.4772
  27   2.0000      -0.840276       -22.8651
  28   2.0000      -0.825903       -22.4740
  29   2.0000      -0.789689       -21.4885
  30   2.0000      -0.785904       -21.3855
  31   2.0000      -0.775632       -21.1060
  32   2.0000      -0.739704       -20.1284
  33   2.0000      -0.694979       -18.9113
  34   2.0000      -0.649542       -17.6749
  35   2.0000      -0.638803       -17.3827
  36   2.0000      -0.631717       -17.1899
  37   2.0000      -0.610666       -16.6171
  38   2.0000      -0.610235       -16.6053
  39   2.0000      -0.603342       -16.4178
  40   2.0000      -0.592207       -16.1148
  41   2.0000      -0.573642       -15.6096
  42   2.0000      -0.567417       -15.4402
  43   2.0000      -0.558176       -15.1887
  44   2.0000      -0.550192       -14.9715
  45   2.0000      -0.548786       -14.9332
  46   2.0000      -0.541875       -14.7452
  47   2.0000      -0.535702       -14.5772
  48   2.0000      -0.532543       -14.4912
  49   2.0000      -0.526340       -14.3224
  50   2.0000      -0.506536       -13.7835
  51   2.0000      -0.494641       -13.4599
  52   2.0000      -0.487008       -13.2522
  53   2.0000      -0.478829       -13.0296
  54   2.0000      -0.466715       -12.7000
  55   2.0000      -0.455456       -12.3936
  56   2.0000      -0.453419       -12.3382
  57   2.0000      -0.452280       -12.3072
  58   2.0000      -0.444697       -12.1008
  59   2.0000      -0.442315       -12.0360
  60   2.0000      -0.432820       -11.7776
  61   2.0000      -0.397897       -10.8273
  62   2.0000      -0.395357       -10.7582
  63   2.0000      -0.391367       -10.6496
  64   2.0000      -0.330822        -9.0021
  65   0.0000       0.166907         4.5418
  66   0.0000       0.183867         5.0033
  67   0.0000       0.187035         5.0895
  68   0.0000       0.204224         5.5572
  69   0.0000       0.215787         5.8719

MULLIKEN ATOMIC CHARGES
-----------------------
   0 C :    0.076521
   1 C :   -0.161150
   2 C :    0.072211
   3 C :   -0.160637
   4 C :    0.091065
   5 C :   -0.110159
   6 C :    0.076745
   7 C :   -0.131067
   8 C :    0.091682
   9 C :   -0.079956
  10 C :    0.073946
  11 C :    0.011482
  12 C :   -0.031400
  13 C :   -0.052482
  14 C :    0.135242
  15 N :   -0.507232
  16 C :    0.110940
  17 H :    0.020213
  18 H :    0.031883
  19 H :    0.020859
  20 H :    0.019854
  21 H :    0.022557
  22 H :    0.021892
  23 H :    0.024591
  24 H :    0.022278
  25 H :    0.023581
  26 H :    0.010269
  27 H :    0.029876
  28 H :    0.036909
  29 H :    0.018292
  30 H :    0.017208
  31 H :   -0.000283
  32 H :    0.017179
  33 H :    0.016134
  34 H :   -0.000022
  35 H :    0.018349
  36 H :    0.018642
  37 H :    0.013253
  38 H :    0.017675
  39 H :    0.018817
  40 H :    0.005959
  41 H :    0.017689
  42 H :    0.023390
  43 H :    0.007206
Sum of atomic charges:   -0.0000000

LOEWDIN ATOMIC CHARGES
----------------------
   0 C :   -0.016366
   1 C :   -0.031148
   2 C :   -0.018601
   3 C :   -0.032218
   4 C :   -0.017229
   5 C :   -0.020651
   6 C :   -0.019062
   7 C :   -0.023358
   8 C :   -0.015629
   9 C :   -0.022241
  10 C :   -0.009581
  11 C :   -0.033659
  12 C :   -0.031192
  13 C :   -0.045148
  14 C :   -0.007542
  15 N :   -0.030205
  16 C :   -0.022984
  17 H :    0.010720
  18 H :    0.018785
  19 H :    0.013933
  20 H :    0.015621
  21 H :    0.018456
  22 H :    0.019394
  23 H :    0.015118
  24 H :    0.014672
  25 H :    0.015989
  26 H :   -0.002630
  27 H :    0.019766
  28 H :    0.016839
  29 H :    0.015094
  30 H :    0.014456
  31 H :    0.014279
  32 H :    0.015091
  33 H :    0.014549
  34 H :    0.014276
  35 H :    0.013292
  36 H :    0.015771
  37 H :    0.013343
  38 H :    0.015161
  39 H :    0.017898
  40 H :    0.011766
  41 H :    0.016006
  42 H :    0.015941
  43 H :    0.013229

  Mayer bond orders larger than 0.1
B(  0-C ,  1-C ) :   1.0213 B(  0-C ,  5-C ) :   1.0244 B(  0-C , 41-H ) :   0.9662
B(  0-C , 42-H ) :   0.9678 B(  1-C ,  2-C ) :   1.0236 B(  1-C ,  6-C ) :   1.0220
B(  1-C , 34-H ) :   0.9684 B(  2-C ,  3-C ) :   1.0237 B(  2-C , 29-H ) :   0.9665
B(  2-C , 30-H ) :   0.9666 B(  3-C ,  4-C ) :   1.0225 B(  3-C ,  8-C ) :   1.0247
B(  3-C , 31-H ) :   0.9678 B(  4-C ,  5-C ) :   1.0377 B(  4-C , 37-H ) :   0.9634
B(  4-C , 38-H ) :   0.9658 B(  5-C ,  9-C ) :   1.0045 B(  5-C , 39-H ) :   0.9570
B(  6-C ,  7-C ) :   1.0181 B(  6-C , 35-H ) :   0.9674 B(  6-C , 36-H ) :   0.9666
B(  7-C ,  8-C ) :   1.0426 B(  7-C ,  9-C ) :   1.0168 B(  7-C , 43-H ) :   0.9602
B(  8-C , 32-H ) :   0.9650 B(  8-C , 33-H ) :   0.9632 B(  9-C , 10-C ) :   1.0299
B(  9-C , 40-H ) :   0.9398 B( 10-C , 11-C ) :   1.0255 B( 10-C , 15-N ) :   0.9824
B( 10-C , 17-H ) :   0.9377 B( 11-C , 12-C ) :   1.0562 B( 11-C , 18-H ) :   0.9595
B( 11-C , 19-H ) :   0.9569 B( 12-C , 13-C ) :   1.0432 B( 12-C , 20-H ) :   0.9630
B( 12-C , 21-H ) :   0.9730 B( 13-C , 14-C ) :   1.0331 B( 13-C , 22-H ) :   0.9701
B( 13-C , 23-H ) :   0.9631 B( 14-C , 15-N ) :   1.0119 B( 14-C , 24-H ) :   0.9705
B( 14-C , 25-H ) :   0.9782 B( 15-N , 16-C ) :   0.9955 B( 16-C , 26-H ) :   0.9731
B( 16-C , 27-H ) :   0.9873 B( 16-C , 28-H ) :   0.9868

E(0)                                       ...   -676.115317520
E(0)                                       ...   -676.115317520
E(CORR)(strong-pairs)                      ...     -2.596831841
E(CORR)(weak-pairs)                        ...     -0.003242681
E(CORR)(corrected)                         ...     -2.600074523
E(TOT)                                     ...   -678.715392043
E(CCSD(T))                                 ...   -678.803723455
FINAL SINGLE POINT ENERGY      -678.803723455167

DIPOLE MOMENT
-------------
                                X             Y             Z
Electronic contribution:      3.36334       0.36941       1.11635
Nuclear contribution   :     -3.57371      -0.50839      -1.27463
                        -----------------------------------------
Total Dipole Moment    :     -0.21037      -0.13898      -0.15828
                        -----------------------------------------
Magnitude (a.u.)       :      0.29770
Magnitude (Debye)      :      0.75669

Rotational constants in cm-1:     0.033882     0.010489     0.009873
Rotational constants in MHz :  1015.744536   314.446217   295.998962

                             ****ORCA TERMINATED NORMALLY****
TOTAL RUN TIME: 0 days 0 hours 38 minutes 11 seconds 272 msec
