                         Program Version 4.1.x  -  STABLE  -
|  1> ! RHF DLPNO-CCSD(T) cc-pVDZ RIJK cc-pVTZ/JK cc-pVDZ/C
|  2> ! KDIIS SOSCF TightSCF TightPNO
|  3>
|  4> %pal nprocs 4 end
|  5>
|  6> %maxcore 8000
|  7>
|  8> %scf maxiter 300
|  9>      shift shift 0.2 erroff 0.1 end
| 10> end
| 11>
| 12> * xyzfile 0 1 2_2_Ad_N_Me_piperidine_ax_ax.xyz
| 13>
| 14>
| 15>                          ****END OF INPUT****

CARTESIAN COORDINATES (ANGSTROEM)
---------------------------------
  C      1.889760    0.250950    1.810020
  C      2.892220   -0.612440    1.016940
  C      3.595980    0.262930   -0.042690
  C      2.545950    0.858880   -1.004890
  C      1.545860    1.715950   -0.200700
  C      0.830970    0.841000    0.853720
  C      2.128690   -1.750570    0.308560
  C      1.068750   -1.161330   -0.650670
  C      1.784810   -0.287010   -1.705700
  C      0.052490   -0.322890    0.178180
  C     -1.191250    0.157610   -0.625070
  C     -2.041750   -1.001920   -1.210280
  C     -2.842980   -1.750570   -0.130430
  C     -3.685130   -0.765650    0.696540
  C     -2.801570    0.379800    1.225510
  N     -2.022980    1.073410    0.191000
  C     -2.815030    2.010590   -0.597970
  H     -0.832100    0.759160   -1.466970
  H     -1.412680   -1.698280   -1.774640
  H     -2.747100   -0.576600   -1.937010
  H     -2.160930   -2.296750    0.535360
  H     -3.485030   -2.506750   -0.598670
  H     -4.169560   -1.276620    1.538640
  H     -4.490840   -0.357950    0.070960
  H     -2.102250   -0.024910    1.969460
  H     -3.409310    1.127660    1.748170
  H     -3.601170    1.552130   -1.225290
  H     -3.303390    2.724000    0.075140
  H     -2.152700    2.578970   -1.259500
  H      4.156690    1.070560    0.447730
  H      4.325410   -0.336860   -0.604340
  H      3.047980    1.481570   -1.757370
  H      2.485810   -0.908350   -2.279950
  H      1.068570    0.121700   -2.429890
  H      3.639660   -1.038490    1.699420
  H      1.643280   -2.399210    1.050460
  H      2.829890   -2.380860   -0.255510
  H      0.818270    2.186010   -0.873770
  H      2.075370    2.535910    0.303540
  H      0.122200    1.457540    1.414450
  H     -0.307700   -0.977010    0.984830
  H      2.418880    1.062580    2.328270
  H      1.401490   -0.355050    2.585750
  H      0.555550   -1.989940   -1.152640

 Total Charge           Charge          ....    0
 Multiplicity           Mult            ....    1
 Number of Electrons    NEL             ....  130
 Basis Dimension        Dim             ....  373

ORBITAL ENERGIES
----------------

  NO   OCC          E(Eh)            E(eV)
   0   2.0000     -15.537298      -422.7914
   1   2.0000     -11.249089      -306.1033
   2   2.0000     -11.245879      -306.0159
   3   2.0000     -11.245699      -306.0110
   4   2.0000     -11.221533      -305.3534
   5   2.0000     -11.220748      -305.3321
   6   2.0000     -11.219213      -305.2903
   7   2.0000     -11.218492      -305.2707
   8   2.0000     -11.218221      -305.2633
   9   2.0000     -11.218121      -305.2606
  10   2.0000     -11.217142      -305.2339
  11   2.0000     -11.214864      -305.1720
  12   2.0000     -11.214598      -305.1647
  13   2.0000     -11.213207      -305.1269
  14   2.0000     -11.211619      -305.0837
  15   2.0000     -11.211076      -305.0689
  16   2.0000     -11.210475      -305.0525
  17   2.0000      -1.221510       -33.2390
  18   2.0000      -1.154018       -31.4024
  19   2.0000      -1.062065       -28.9003
  20   2.0000      -1.044680       -28.4272
  21   2.0000      -1.028846       -27.9963
  22   2.0000      -1.027268       -27.9534
  23   2.0000      -0.995193       -27.0806
  24   2.0000      -0.940115       -25.5818
  25   2.0000      -0.898814       -24.4580
  26   2.0000      -0.891022       -24.2459
  27   2.0000      -0.840975       -22.8841
  28   2.0000      -0.832973       -22.6664
  29   2.0000      -0.789804       -21.4917
  30   2.0000      -0.785310       -21.3694
  31   2.0000      -0.782157       -21.2836
  32   2.0000      -0.727741       -19.8028
  33   2.0000      -0.688030       -18.7222
  34   2.0000      -0.660606       -17.9760
  35   2.0000      -0.631938       -17.1959
  36   2.0000      -0.623604       -16.9691
  37   2.0000      -0.620453       -16.8834
  38   2.0000      -0.608968       -16.5709
  39   2.0000      -0.601428       -16.3657
  40   2.0000      -0.593274       -16.1438
  41   2.0000      -0.573890       -15.6163
  42   2.0000      -0.565943       -15.4001
  43   2.0000      -0.558089       -15.1864
  44   2.0000      -0.549323       -14.9479
  45   2.0000      -0.547852       -14.9078
  46   2.0000      -0.542680       -14.7671
  47   2.0000      -0.536152       -14.5894
  48   2.0000      -0.531559       -14.4645
  49   2.0000      -0.523580       -14.2473
  50   2.0000      -0.510080       -13.8800
  51   2.0000      -0.501550       -13.6479
  52   2.0000      -0.489392       -13.3170
  53   2.0000      -0.480279       -13.0691
  54   2.0000      -0.461341       -12.5537
  55   2.0000      -0.454452       -12.3663
  56   2.0000      -0.452254       -12.3064
  57   2.0000      -0.451449       -12.2845
  58   2.0000      -0.441398       -12.0111
  59   2.0000      -0.437978       -11.9180
  60   2.0000      -0.434020       -11.8103
  61   2.0000      -0.396570       -10.7912
  62   2.0000      -0.393922       -10.7191
  63   2.0000      -0.390742       -10.6326
  64   2.0000      -0.329597        -8.9688
  65   0.0000       0.164366         4.4726
  66   0.0000       0.180917         4.9230
  67   0.0000       0.191475         5.2103
  68   0.0000       0.203517         5.5380
  69   0.0000       0.214828         5.8458

MULLIKEN ATOMIC CHARGES
-----------------------
   0 C :    0.088241
   1 C :   -0.160121
   2 C :    0.071975
   3 C :   -0.159344
   4 C :    0.071199
   5 C :   -0.096766
   6 C :    0.089779
   7 C :   -0.128786
   8 C :    0.075254
   9 C :   -0.061327
  10 C :    0.057710
  11 C :    0.030509
  12 C :   -0.049089
  13 C :   -0.044093
  14 C :    0.129995
  15 N :   -0.501893
  16 C :    0.122711
  17 H :    0.012647
  18 H :    0.024213
  19 H :    0.020047
  20 H :    0.024575
  21 H :    0.022877
  22 H :    0.021357
  23 H :    0.023282
  24 H :    0.027182
  25 H :    0.024686
  26 H :    0.004237
  27 H :    0.030373
  28 H :    0.028807
  29 H :    0.017948
  30 H :    0.016858
  31 H :   -0.000732
  32 H :    0.018330
  33 H :    0.018418
  34 H :   -0.000750
  35 H :    0.015449
  36 H :    0.016692
  37 H :    0.019674
  38 H :    0.017248
  39 H :    0.018028
  40 H :    0.006776
  41 H :    0.016796
  42 H :    0.013507
  43 H :    0.005521
Sum of atomic charges:    0.0000000

LOEWDIN ATOMIC CHARGES
----------------------
   0 C :   -0.017673
   1 C :   -0.032198
   2 C :   -0.018669
   3 C :   -0.031194
   4 C :   -0.017390
   5 C :   -0.020371
   6 C :   -0.015754
   7 C :   -0.023763
   8 C :   -0.019066
   9 C :   -0.022131
  10 C :   -0.006460
  11 C :   -0.031766
  12 C :   -0.033460
  13 C :   -0.042577
  14 C :   -0.008069
  15 N :   -0.025513
  16 C :   -0.021919
  17 H :    0.011289
  18 H :    0.017068
  19 H :    0.016877
  20 H :    0.014768
  21 H :    0.018873
  22 H :    0.019276
  23 H :    0.014716
  24 H :    0.014166
  25 H :    0.017182
  26 H :   -0.003689
  27 H :    0.018650
  28 H :    0.017636
  29 H :    0.014965
  30 H :    0.014243
  31 H :    0.013961
  32 H :    0.015650
  33 H :    0.013026
  34 H :    0.014060
  35 H :    0.014230
  36 H :    0.014801
  37 H :    0.014207
  38 H :    0.015780
  39 H :    0.016699
  40 H :    0.009019
  41 H :    0.014793
  42 H :    0.013488
  43 H :    0.012238

  Mayer bond orders larger than 0.1
B(  0-C ,  1-C ) :   1.0218 B(  0-C ,  5-C ) :   1.0389 B(  0-C , 41-H ) :   0.9660
B(  0-C , 42-H ) :   0.9636 B(  1-C ,  2-C ) :   1.0239 B(  1-C ,  6-C ) :   1.0243
B(  1-C , 34-H ) :   0.9678 B(  2-C ,  3-C ) :   1.0238 B(  2-C , 29-H ) :   0.9665
B(  2-C , 30-H ) :   0.9666 B(  3-C ,  4-C ) :   1.0211 B(  3-C ,  8-C ) :   1.0219
B(  3-C , 31-H ) :   0.9683 B(  4-C ,  5-C ) :   1.0234 B(  4-C , 37-H ) :   0.9680
B(  4-C , 38-H ) :   0.9667 B(  5-C ,  9-C ) :   1.0080 B(  5-C , 39-H ) :   0.9546
B(  6-C ,  7-C ) :   1.0416 B(  6-C , 35-H ) :   0.9636 B(  6-C , 36-H ) :   0.9651
B(  7-C ,  8-C ) :   1.0191 B(  7-C ,  9-C ) :   1.0120 B(  7-C , 43-H ) :   0.9596
B(  8-C , 32-H ) :   0.9666 B(  8-C , 33-H ) :   0.9675 B(  9-C , 10-C ) :   1.0057
B(  9-C , 40-H ) :   0.9395 B( 10-C , 11-C ) :   1.0489 B( 10-C , 15-N ) :   0.9850
B( 10-C , 17-H ) :   0.9498 B( 11-C , 12-C ) :   1.0382 B( 11-C , 18-H ) :   0.9662
B( 11-C , 19-H ) :   0.9607 B( 12-C , 13-C ) :   1.0408 B( 12-C , 20-H ) :   0.9659
B( 12-C , 21-H ) :   0.9744 B( 13-C , 14-C ) :   1.0361 B( 13-C , 22-H ) :   0.9705
B( 13-C , 23-H ) :   0.9631 B( 14-C , 15-N ) :   0.9943 B( 14-C , 24-H ) :   0.9709
B( 14-C , 25-H ) :   0.9775 B( 15-N , 16-C ) :   1.0106 B( 16-C , 26-H ) :   0.9701
B( 16-C , 27-H ) :   0.9872 B( 16-C , 28-H ) :   0.9868

E(0)                                       ...   -676.114818196
E(0)                                       ...   -676.114818196
E(CORR)(strong-pairs)                      ...     -2.596666656
E(CORR)(weak-pairs)                        ...     -0.003266397
E(CORR)(corrected)                         ...     -2.599933054
E(TOT)                                     ...   -678.714751250
E(CCSD(T))                                 ...   -678.803078605
FINAL SINGLE POINT ENERGY      -678.803078605210

DIPOLE MOMENT
-------------
                                X             Y             Z
Electronic contribution:      3.49258       0.35795       0.77312
Nuclear contribution   :     -3.76330      -0.48071      -0.90198
                        -----------------------------------------
Total Dipole Moment    :     -0.27072      -0.12276      -0.12885
                        -----------------------------------------
Magnitude (a.u.)       :      0.32398
Magnitude (Debye)      :      0.82349

Rotational constants in cm-1:     0.031632     0.011098     0.010516
Rotational constants in MHz :   948.293145   332.707446   315.276498

                             ****ORCA TERMINATED NORMALLY****
TOTAL RUN TIME: 0 days 0 hours 40 minutes 45 seconds 908 msec
