                         Program Version 4.1.x  -  STABLE  -
|  1> ! RHF DLPNO-CCSD(T) cc-pVDZ RIJK cc-pVTZ/JK cc-pVDZ/C
|  2> ! KDIIS SOSCF TightSCF TightPNO
|  3>
|  4> %pal nprocs 4 end
|  5>
|  6> %maxcore 8000
|  7>
|  8> %scf maxiter 300
|  9>      shift shift 0.2 erroff 0.1 end
| 10> end
| 11>
| 12> * xyzfile 0 1 2_3_dimethyl_butane_a.xyz
| 13>
| 14>
| 15>                          ****END OF INPUT****

CARTESIAN COORDINATES (ANGSTROEM)
---------------------------------
  C      1.518460    1.255450   -0.053880
  C      0.709300   -0.000080    0.317800
  C      1.518660   -1.255410   -0.054150
  C     -0.709300   -0.000080   -0.317800
  C     -1.518440    1.255470    0.053880
  C     -1.518680   -1.255400    0.054150
  H      2.525390    1.205960    0.375420
  H      1.628300    1.340590   -1.143050
  H      1.053640    2.176330    0.309010
  H      0.572930   -0.000200    1.411440
  H     -0.572920   -0.000180   -1.411440
  H     -2.525670   -1.205720   -0.375010
  H     -1.054110   -2.176420   -0.308690
  H     -1.628370   -1.340390    1.143340
  H      1.054090   -2.176430    0.308700
  H      1.628380   -1.340390   -1.143340
  H      2.525660   -1.205730    0.375010
  H     -2.525390    1.205960   -0.375410
  H     -1.628290    1.340600    1.143050
  H     -1.053620    2.176340   -0.309010

 Total Charge           Charge          ....    0
 Multiplicity           Mult            ....    1
 Number of Electrons    NEL             ....   50
 Basis Dimension        Dim             ....  154

ORBITAL ENERGIES
----------------

  NO   OCC          E(Eh)            E(eV)
   0   2.0000     -11.227344      -305.5116
   1   2.0000     -11.226796      -305.4966
   2   2.0000     -11.215722      -305.1953
   3   2.0000     -11.215714      -305.1951
   4   2.0000     -11.215691      -305.1945
   5   2.0000     -11.215688      -305.1944
   6   2.0000      -1.097682       -29.8694
   7   2.0000      -1.008849       -27.4522
   8   2.0000      -0.936348       -25.4793
   9   2.0000      -0.908511       -24.7218
  10   2.0000      -0.829255       -22.5652
  11   2.0000      -0.746855       -20.3230
  12   2.0000      -0.621116       -16.9014
  13   2.0000      -0.616966       -16.7885
  14   2.0000      -0.587353       -15.9827
  15   2.0000      -0.574870       -15.6430
  16   2.0000      -0.541777       -14.7425
  17   2.0000      -0.535654       -14.5759
  18   2.0000      -0.523957       -14.2576
  19   2.0000      -0.506788       -13.7904
  20   2.0000      -0.495893       -13.4939
  21   2.0000      -0.477945       -13.0055
  22   2.0000      -0.449924       -12.2431
  23   2.0000      -0.441748       -12.0206
  24   2.0000      -0.434851       -11.8329
  25   0.0000       0.180238         4.9045
  26   0.0000       0.203852         5.5471
  27   0.0000       0.213031         5.7969
  28   0.0000       0.218994         5.9591
  29   0.0000       0.242067         6.5870

MULLIKEN ATOMIC CHARGES
-----------------------
   0 C :    0.011316
   1 C :   -0.203247
   2 C :    0.011329
   3 C :   -0.203249
   4 C :    0.011311
   5 C :    0.011337
   6 H :    0.027441
   7 H :    0.024561
   8 H :    0.031662
   9 H :    0.013276
  10 H :    0.013277
  11 H :    0.027444
  12 H :    0.031655
  13 H :    0.024562
  14 H :    0.031657
  15 H :    0.024562
  16 H :    0.027442
  17 H :    0.027441
  18 H :    0.024560
  19 H :    0.031664
Sum of atomic charges:   -0.0000000

LOEWDIN ATOMIC CHARGES
----------------------
   0 C :   -0.044838
   1 C :   -0.040567
   2 C :   -0.044838
   3 C :   -0.040565
   4 C :   -0.044839
   5 C :   -0.044836
   6 H :    0.020437
   7 H :    0.018684
   8 H :    0.018750
   9 H :    0.014497
  10 H :    0.014497
  11 H :    0.020442
  12 H :    0.018748
  13 H :    0.018684
  14 H :    0.018748
  15 H :    0.018684
  16 H :    0.020442
  17 H :    0.020439
  18 H :    0.018684
  19 H :    0.018748

  Mayer bond orders larger than 0.1
B(  0-C ,  1-C ) :   1.0507 B(  0-C ,  6-H ) :   0.9817 B(  0-C ,  7-H ) :   0.9762
B(  0-C ,  8-H ) :   0.9806 B(  1-C ,  2-C ) :   1.0507 B(  1-C ,  3-C ) :   0.9970
B(  1-C ,  9-H ) :   0.9499 B(  2-C , 14-H ) :   0.9806 B(  2-C , 15-H ) :   0.9762
B(  2-C , 16-H ) :   0.9817 B(  3-C ,  4-C ) :   1.0507 B(  3-C ,  5-C ) :   1.0507
B(  3-C , 10-H ) :   0.9499 B(  4-C , 17-H ) :   0.9817 B(  4-C , 18-H ) :   0.9762
B(  4-C , 19-H ) :   0.9806 B(  5-C , 11-H ) :   0.9817 B(  5-C , 12-H ) :   0.9806
B(  5-C , 13-H ) :   0.9762

E(0)                                       ...   -235.379620087
E(0)                                       ...   -235.379620087
E(CORR)(strong-pairs)                      ...     -0.968818122
E(CORR)(weak-pairs)                        ...     -0.000372041
E(CORR)(corrected)                         ...     -0.969190163
E(TOT)                                     ...   -236.348810250
E(CCSD(T))                                 ...   -236.376857066
FINAL SINGLE POINT ENERGY      -236.376857066107

DIPOLE MOMENT
-------------
                                X             Y             Z
Electronic contribution:     -0.00001      -0.00034      -0.00001
Nuclear contribution   :      0.00002       0.00034       0.00002
                        -----------------------------------------
Total Dipole Moment    :      0.00000       0.00000       0.00000
                        -----------------------------------------
Magnitude (a.u.)       :      0.00001
Magnitude (Debye)      :      0.00002

Rotational constants in cm-1:     0.139632     0.095118     0.061896
Rotational constants in MHz :  4186.053620  2851.573996  1855.582088

                             ****ORCA TERMINATED NORMALLY****
TOTAL RUN TIME: 0 days 0 hours 2 minutes 48 seconds 260 msec
