                         Program Version 4.1.x  -  STABLE  -
|  1> ! RHF DLPNO-CCSD(T) cc-pVDZ RIJK cc-pVTZ/JK cc-pVDZ/C
|  2> ! KDIIS SOSCF TightSCF TightPNO
|  3>
|  4> %pal nprocs 4 end
|  5>
|  6> %maxcore 8000
|  7>
|  8> %scf maxiter 300
|  9>      shift shift 0.2 erroff 0.1 end
| 10> end
| 11>
| 12> * xyzfile 0 1 2_3_dimethyl_butane_g.xyz
| 13>
| 14>
| 15>                          ****END OF INPUT****

CARTESIAN COORDINATES (ANGSTROEM)
---------------------------------
  C      1.810990   -0.748820   -0.546980
  C      0.711950    0.313450   -0.376120
  C      1.006710    1.198050    0.847730
  C     -0.711940   -0.313450   -0.376120
  C     -1.810990    0.748810   -0.547000
  C     -1.006730   -1.198040    0.847740
  H      2.791940   -0.276960   -0.674320
  H      1.877450   -1.407010    0.327030
  H      1.625940   -1.376960   -1.426250
  H      0.753240    0.962730   -1.263930
  H     -0.753220   -0.962760   -1.263920
  H     -1.979360   -1.690740    0.736790
  H     -0.255850   -1.983470    0.982010
  H     -1.044660   -0.608280    1.770950
  H      0.255790    1.983440    0.982000
  H      1.044690    0.608300    1.770950
  H      1.979320    1.690800    0.736770
  H     -2.791910    0.276920   -0.674430
  H     -1.877520    1.406950    0.327040
  H     -1.625890    1.377000   -1.426210

 Total Charge           Charge          ....    0
 Multiplicity           Mult            ....    1
 Number of Electrons    NEL             ....   50
 Basis Dimension        Dim             ....  154

ORBITAL ENERGIES
----------------

  NO   OCC          E(Eh)            E(eV)
   0   2.0000     -11.226627      -305.4921
   1   2.0000     -11.226082      -305.4772
   2   2.0000     -11.215883      -305.1997
   3   2.0000     -11.215880      -305.1996
   4   2.0000     -11.215559      -305.1909
   5   2.0000     -11.215553      -305.1907
   6   2.0000      -1.097036       -29.8519
   7   2.0000      -1.007595       -27.4181
   8   2.0000      -0.928767       -25.2730
   9   2.0000      -0.919465       -25.0199
  10   2.0000      -0.833607       -22.6836
  11   2.0000      -0.732434       -19.9305
  12   2.0000      -0.635882       -17.3032
  13   2.0000      -0.604938       -16.4612
  14   2.0000      -0.601019       -16.3546
  15   2.0000      -0.558255       -15.1909
  16   2.0000      -0.547836       -14.9074
  17   2.0000      -0.535896       -14.5825
  18   2.0000      -0.519634       -14.1399
  19   2.0000      -0.519338       -14.1319
  20   2.0000      -0.485597       -13.2138
  21   2.0000      -0.484456       -13.1827
  22   2.0000      -0.444263       -12.0890
  23   2.0000      -0.443762       -12.0754
  24   2.0000      -0.433662       -11.8005
  25   0.0000       0.174668         4.7530
  26   0.0000       0.211934         5.7670
  27   0.0000       0.212293         5.7768
  28   0.0000       0.220517         6.0006
  29   0.0000       0.243646         6.6299

MULLIKEN ATOMIC CHARGES
-----------------------
   0 C :    0.017269
   1 C :   -0.201269
   2 C :    0.005249
   3 C :   -0.201283
   4 C :    0.017277
   5 C :    0.005251
   6 H :    0.028112
   7 H :    0.027388
   8 H :    0.025555
   9 H :    0.013375
  10 H :    0.013375
  11 H :    0.028424
  12 H :    0.027661
  13 H :    0.028238
  14 H :    0.027661
  15 H :    0.028239
  16 H :    0.028425
  17 H :    0.028113
  18 H :    0.027388
  19 H :    0.025552
Sum of atomic charges:    0.0000000

LOEWDIN ATOMIC CHARGES
----------------------
   0 C :   -0.044521
   1 C :   -0.041595
   2 C :   -0.046695
   3 C :   -0.041593
   4 C :   -0.044519
   5 C :   -0.046694
   6 H :    0.020652
   7 H :    0.017023
   8 H :    0.019312
   9 H :    0.017497
  10 H :    0.017497
  11 H :    0.021389
  12 H :    0.018868
  13 H :    0.018067
  14 H :    0.018868
  15 H :    0.018068
  16 H :    0.021390
  17 H :    0.020653
  18 H :    0.017023
  19 H :    0.019310

  Mayer bond orders larger than 0.1
B(  0-C ,  1-C ) :   1.0521 B(  0-C ,  6-H ) :   0.9812 B(  0-C ,  7-H ) :   0.9760
B(  0-C ,  8-H ) :   0.9797 B(  1-C ,  2-C ) :   1.0364 B(  1-C ,  3-C ) :   1.0239
B(  1-C ,  9-H ) :   0.9558 B(  2-C , 14-H ) :   0.9820 B(  2-C , 15-H ) :   0.9766
B(  2-C , 16-H ) :   0.9815 B(  3-C ,  4-C ) :   1.0521 B(  3-C ,  5-C ) :   1.0364
B(  3-C , 10-H ) :   0.9558 B(  4-C , 17-H ) :   0.9812 B(  4-C , 18-H ) :   0.9760
B(  4-C , 19-H ) :   0.9797 B(  5-C , 11-H ) :   0.9815 B(  5-C , 12-H ) :   0.9820
B(  5-C , 13-H ) :   0.9766

E(0)                                       ...   -235.379860957
E(0)                                       ...   -235.379860957
E(CORR)(strong-pairs)                      ...     -0.968584066
E(CORR)(weak-pairs)                        ...     -0.000370552
E(CORR)(corrected)                         ...     -0.968954618
E(TOT)                                     ...   -236.348815575
E(CCSD(T))                                 ...   -236.376819645
FINAL SINGLE POINT ENERGY      -236.376819644775

DIPOLE MOMENT
-------------
                                X             Y             Z
Electronic contribution:      0.00001       0.00004      -1.02449
Nuclear contribution   :     -0.00001      -0.00003       0.98557
                        -----------------------------------------
Total Dipole Moment    :     -0.00000       0.00000      -0.03892
                        -----------------------------------------
Magnitude (a.u.)       :      0.03892
Magnitude (Debye)      :      0.09892

Rotational constants in cm-1:     0.140210     0.084080     0.073481
Rotational constants in MHz :  4203.402333  2520.657777  2202.890449

                             ****ORCA TERMINATED NORMALLY****
TOTAL RUN TIME: 0 days 0 hours 2 minutes 23 seconds 638 msec
