                         Program Version 4.1.x  -  STABLE  -
|  1> ! RHF DLPNO-CCSD(T) cc-pVDZ RIJK cc-pVTZ/JK cc-pVDZ/C
|  2> ! KDIIS SOSCF TightSCF TightPNO
|  3>
|  4> %pal nprocs 4 end
|  5>
|  6> %maxcore 8000
|  7>
|  8> %scf maxiter 300
|  9>      shift shift 0.2 erroff 0.1 end
| 10> end
| 11>
| 12> * xyzfile 0 1 2_5_dimethyl_1_3_dioxane_eq_eq.xyz
| 13>
| 14>
| 15>                          ****END OF INPUT****

CARTESIAN COORDINATES (ANGSTROEM)
---------------------------------
  C     -0.640660   -1.239310    0.135630
  C     -1.389310   -0.000010   -0.370380
  C     -0.640650    1.239300    0.135630
  O      0.748590    1.171070   -0.188650
  C      1.358470   -0.000060    0.324820
  O      0.748600   -1.171030   -0.188660
  C     -2.857980    0.000000    0.062760
  C      2.815880    0.000010   -0.077560
  H     -0.760790    1.330400    1.229980
  H     -1.018280    2.156350   -0.325450
  H     -1.330650   -0.000020   -1.466530
  H      1.237850    0.000010    1.426090
  H     -0.760750   -1.330420    1.229980
  H     -1.018240   -2.156380   -0.325460
  H      2.894630    0.000050   -1.168020
  H      3.311030    0.891420    0.315990
  H      3.311120   -0.891370    0.315940
  H     -2.953540    0.000010    1.155540
  H     -3.382180    0.883830   -0.317450
  H     -3.382190   -0.883810   -0.317460

 Total Charge           Charge          ....    0
 Multiplicity           Mult            ....    1
 Number of Electrons    NEL             ....   64
 Basis Dimension        Dim             ....  172

ORBITAL ENERGIES
----------------

  NO   OCC          E(Eh)            E(eV)
   0   2.0000     -20.556010      -559.3575
   1   2.0000     -20.555982      -559.3567
   2   2.0000     -11.330649      -308.3226
   3   2.0000     -11.282171      -307.0035
   4   2.0000     -11.282159      -307.0032
   5   2.0000     -11.235729      -305.7397
   6   2.0000     -11.234132      -305.6963
   7   2.0000     -11.218363      -305.2672
   8   2.0000      -1.415096       -38.5067
   9   2.0000      -1.336884       -36.3785
  10   2.0000      -1.093746       -29.7623
  11   2.0000      -1.006770       -27.3956
  12   2.0000      -0.919620       -25.0241
  13   2.0000      -0.916219       -24.9316
  14   2.0000      -0.834968       -22.7206
  15   2.0000      -0.785473       -21.3738
  16   2.0000      -0.673713       -18.3327
  17   2.0000      -0.671424       -18.2704
  18   2.0000      -0.659843       -17.9553
  19   2.0000      -0.622531       -16.9399
  20   2.0000      -0.610508       -16.6128
  21   2.0000      -0.572286       -15.5727
  22   2.0000      -0.571264       -15.5449
  23   2.0000      -0.537252       -14.6194
  24   2.0000      -0.529072       -14.3968
  25   2.0000      -0.526908       -14.3379
  26   2.0000      -0.524983       -14.2855
  27   2.0000      -0.487568       -13.2674
  28   2.0000      -0.474770       -12.9191
  29   2.0000      -0.461562       -12.5597
  30   2.0000      -0.423597       -11.5267
  31   2.0000      -0.413012       -11.2386
  32   0.0000       0.176822         4.8116
  33   0.0000       0.197383         5.3711
  34   0.0000       0.211278         5.7492
  35   0.0000       0.221984         6.0405
  36   0.0000       0.229461         6.2440

MULLIKEN ATOMIC CHARGES
-----------------------
   0 C :    0.260714
   1 C :   -0.247583
   2 C :    0.260727
   3 O :   -0.500765
   4 C :    0.333283
   5 O :   -0.500705
   6 C :   -0.009624
   7 C :    0.027155
   8 H :    0.011543
   9 H :    0.041143
  10 H :    0.036343
  11 H :    0.004186
  12 H :    0.011558
  13 H :    0.041152
  14 H :    0.048449
  15 H :    0.038233
  16 H :    0.038227
  17 H :    0.030448
  18 H :    0.037759
  19 H :    0.037757
Sum of atomic charges:   -0.0000000

LOEWDIN ATOMIC CHARGES
----------------------
   0 C :    0.028462
   1 C :   -0.064719
   2 C :    0.028434
   3 O :   -0.077920
   4 C :    0.016730
   5 O :   -0.077837
   6 C :   -0.044418
   7 C :   -0.041922
   8 H :    0.004693
   9 H :    0.022007
  10 H :    0.024938
  11 H :   -0.005859
  12 H :    0.004700
  13 H :    0.022012
  14 H :    0.031108
  15 H :    0.028695
  16 H :    0.028691
  17 H :    0.020692
  18 H :    0.025758
  19 H :    0.025755

  Mayer bond orders larger than 0.1
B(  0-C ,  1-C ) :   1.0218 B(  0-C ,  5-O ) :   0.9613 B(  0-C , 12-H ) :   0.9617
B(  0-C , 13-H ) :   0.9789 B(  1-C ,  2-C ) :   1.0218 B(  1-C ,  6-C ) :   1.0462
B(  1-C , 10-H ) :   0.9487 B(  2-C ,  3-O ) :   0.9613 B(  2-C ,  8-H ) :   0.9617
B(  2-C ,  9-H ) :   0.9789 B(  3-O ,  4-C ) :   0.9694 B(  4-C ,  5-O ) :   0.9695
B(  4-C ,  7-C ) :   1.0781 B(  4-C , 11-H ) :   0.9514 B(  6-C , 17-H ) :   0.9742
B(  6-C , 18-H ) :   0.9796 B(  6-C , 19-H ) :   0.9796 B(  7-C , 14-H ) :   0.9704
B(  7-C , 15-H ) :   0.9729 B(  7-C , 16-H ) :   0.9729

E(0)                                       ...   -383.938813398
E(0)                                       ...   -383.938813398
E(CORR)(strong-pairs)                      ...     -1.292404379
E(CORR)(weak-pairs)                        ...     -0.000612975
E(CORR)(corrected)                         ...     -1.293017354
E(TOT)                                     ...   -385.231830752
E(CCSD(T))                                 ...   -385.269455235
FINAL SINGLE POINT ENERGY      -385.269455234871

DIPOLE MOMENT
-------------
                                X             Y             Z
Electronic contribution:      3.29410      -0.00028      -1.35057
Nuclear contribution   :     -3.96143       0.00008       1.80791
                        -----------------------------------------
Total Dipole Moment    :     -0.66734      -0.00020       0.45734
                        -----------------------------------------
Magnitude (a.u.)       :      0.80901
Magnitude (Debye)      :      2.05634

Rotational constants in cm-1:     0.150393     0.048090     0.039000
Rotational constants in MHz :  4508.657251  1441.699594  1169.202815

                             ****ORCA TERMINATED NORMALLY****
TOTAL RUN TIME: 0 days 0 hours 3 minutes 20 seconds 820 msec
