                         Program Version 4.1.x  -  STABLE  -
|  1> ! RHF DLPNO-CCSD(T) cc-pVDZ RIJK cc-pVTZ/JK cc-pVDZ/C
|  2> ! KDIIS SOSCF TightSCF TightPNO
|  3>
|  4> %pal nprocs 4 end
|  5>
|  6> %maxcore 8000
|  7>
|  8> %scf maxiter 300
|  9>      shift shift 0.2 erroff 0.1 end
| 10> end
| 11>
| 12> * xyzfile 0 1 2_5_dimethyl_1_3_dioxane_eq_ax.xyz
| 13>
| 14>
| 15>                          ****END OF INPUT****

CARTESIAN COORDINATES (ANGSTROEM)
---------------------------------
  C     -1.291500   -0.000030   -0.260240
  O     -0.564980   -1.170780    0.069210
  C      0.684000   -1.237010   -0.624770
  C      1.547420    0.000050   -0.328240
  C      0.683960    1.237070   -0.624690
  O     -0.565030    1.170810    0.069250
  C      2.095130   -0.000060    1.105630
  C     -2.586210   -0.000040    0.520710
  H      1.167230   -2.159930   -0.292470
  H      0.494530   -1.316630   -1.708680
  H      2.389910    0.000120   -1.035220
  H      0.494520    1.316730   -1.708600
  H      1.167190    2.159990   -0.292360
  H     -1.473160   -0.000020   -1.353400
  H     -2.368120   -0.000100    1.592110
  H     -3.169400    0.891410    0.275840
  H     -3.169470   -0.891430    0.275760
  H      1.280770   -0.000230    1.834980
  H      2.714680   -0.885550    1.286830
  H      2.714490    0.885510    1.287090

 Total Charge           Charge          ....    0
 Multiplicity           Mult            ....    1
 Number of Electrons    NEL             ....   64
 Basis Dimension        Dim             ....  172

ORBITAL ENERGIES
----------------

  NO   OCC          E(Eh)            E(eV)
   0   2.0000     -20.556637      -559.3745
   1   2.0000     -20.556615      -559.3739
   2   2.0000     -11.331084      -308.3345
   3   2.0000     -11.282651      -307.0165
   4   2.0000     -11.282644      -307.0164
   5   2.0000     -11.237348      -305.7838
   6   2.0000     -11.220805      -305.3336
   7   2.0000     -11.218923      -305.2824
   8   2.0000      -1.415390       -38.5147
   9   2.0000      -1.336861       -36.3778
  10   2.0000      -1.089690       -29.6520
  11   2.0000      -1.001920       -27.2636
  12   2.0000      -0.922217       -25.0948
  13   2.0000      -0.915111       -24.9014
  14   2.0000      -0.840409       -22.8687
  15   2.0000      -0.766741       -20.8641
  16   2.0000      -0.678478       -18.4623
  17   2.0000      -0.667610       -18.1666
  18   2.0000      -0.648863       -17.6565
  19   2.0000      -0.628014       -17.0891
  20   2.0000      -0.627961       -17.0877
  21   2.0000      -0.569056       -15.4848
  22   2.0000      -0.562051       -15.2942
  23   2.0000      -0.532242       -14.4830
  24   2.0000      -0.532146       -14.4804
  25   2.0000      -0.522597       -14.2206
  26   2.0000      -0.515317       -14.0225
  27   2.0000      -0.486842       -13.2477
  28   2.0000      -0.474911       -12.9230
  29   2.0000      -0.459349       -12.4995
  30   2.0000      -0.423552       -11.5254
  31   2.0000      -0.412914       -11.2360
  32   0.0000       0.176107         4.7921
  33   0.0000       0.207814         5.6549
  34   0.0000       0.208520         5.6741
  35   0.0000       0.226396         6.1606
  36   0.0000       0.237531         6.4635

MULLIKEN ATOMIC CHARGES
-----------------------
   0 C :    0.336030
   1 O :   -0.501395
   2 C :    0.247972
   3 C :   -0.238846
   4 C :    0.247989
   5 O :   -0.501420
   6 C :    0.008181
   7 C :    0.028740
   8 H :    0.038241
   9 H :    0.018476
  10 H :    0.018898
  11 H :    0.018467
  12 H :    0.038240
  13 H :    0.005818
  14 H :    0.047719
  15 H :    0.038364
  16 H :    0.038361
  17 H :    0.052969
  18 H :    0.028599
  19 H :    0.028597
Sum of atomic charges:   -0.0000000

LOEWDIN ATOMIC CHARGES
----------------------
   0 C :    0.015385
   1 O :   -0.079962
   2 C :    0.031640
   3 C :   -0.066064
   4 C :    0.031624
   5 O :   -0.079998
   6 C :   -0.042783
   7 C :   -0.041939
   8 H :    0.021156
   9 H :    0.007008
  10 H :    0.023001
  11 H :    0.007007
  12 H :    0.021156
  13 H :   -0.005006
  14 H :    0.030799
  15 H :    0.028795
  16 H :    0.028793
  17 H :    0.027538
  18 H :    0.020926
  19 H :    0.020925

  Mayer bond orders larger than 0.1
B(  0-C ,  1-O ) :   0.9661 B(  0-C ,  5-O ) :   0.9661 B(  0-C ,  7-C ) :   1.0779
B(  0-C , 13-H ) :   0.9518 B(  1-O ,  2-C ) :   0.9565 B(  2-C ,  3-C ) :   1.0232
B(  2-C ,  8-H ) :   0.9827 B(  2-C ,  9-H ) :   0.9673 B(  3-C ,  4-C ) :   1.0232
B(  3-C ,  6-C ) :   1.0268 B(  3-C , 10-H ) :   0.9582 B(  4-C ,  5-O ) :   0.9566
B(  4-C , 11-H ) :   0.9673 B(  4-C , 12-H ) :   0.9827 B(  6-C , 17-H ) :   0.9766
B(  6-C , 18-H ) :   0.9815 B(  6-C , 19-H ) :   0.9815 B(  7-C , 14-H ) :   0.9708
B(  7-C , 15-H ) :   0.9728 B(  7-C , 16-H ) :   0.9728

E(0)                                       ...   -383.937857394
E(0)                                       ...   -383.937857394
E(CORR)(strong-pairs)                      ...     -1.293133728
E(CORR)(weak-pairs)                        ...     -0.000627867
E(CORR)(corrected)                         ...     -1.293761595
E(TOT)                                     ...   -385.231618989
E(CCSD(T))                                 ...   -385.269301084
FINAL SINGLE POINT ENERGY      -385.269301084084

DIPOLE MOMENT
-------------
                                X             Y             Z
Electronic contribution:     -1.83946       0.00005      -0.80041
Nuclear contribution   :      2.30271      -0.00013       0.16977
                        -----------------------------------------
Total Dipole Moment    :      0.46325      -0.00008      -0.63064
                        -----------------------------------------
Magnitude (a.u.)       :      0.78250
Magnitude (Debye)      :      1.98895

Rotational constants in cm-1:     0.116499     0.055296     0.047678
Rotational constants in MHz :  3492.551944  1657.725339  1429.356543

                             ****ORCA TERMINATED NORMALLY****
TOTAL RUN TIME: 0 days 0 hours 3 minutes 36 seconds 66 msec
