                         Program Version 4.1.x  -  STABLE  -
|  1> ! RHF DLPNO-CCSD(T) cc-pVDZ RIJK cc-pVTZ/JK cc-pVDZ/C
|  2> ! KDIIS SOSCF TightSCF TightPNO
|  3>
|  4> %pal nprocs 4 end
|  5>
|  6> %maxcore 8000
|  7>
|  8> %scf maxiter 300
|  9>      shift shift 0.2 erroff 0.1 end
| 10> end
| 11>
| 12> * xyzfile 0 1 2_butanone_ecl.xyz
| 13>
| 14>
| 15>                          ****END OF INPUT****

CARTESIAN COORDINATES (ANGSTROEM)
---------------------------------
  C      1.891990   -0.505910    0.000180
  C      0.529950    0.166920   -0.000090
  O      0.420200    1.381140   -0.000120
  C     -0.685980   -0.752540   -0.000300
  C     -2.026610   -0.020150    0.000240
  H      2.679790    0.249010   -0.000430
  H      2.000090   -1.149320    0.881500
  H      1.999920   -1.150640   -0.880190
  H     -0.598420   -1.416490   -0.872710
  H     -0.598160   -1.417400    0.871390
  H     -2.854320   -0.736270   -0.000030
  H     -2.123220    0.620570    0.881170
  H     -2.123430    0.621480   -0.880000

 Total Charge           Charge          ....    0
 Multiplicity           Mult            ....    1
 Number of Electrons    NEL             ....   40
 Basis Dimension        Dim             ....  110

ORBITAL ENERGIES
----------------

  NO   OCC          E(Eh)            E(eV)
   0   2.0000     -20.545921      -559.0829
   1   2.0000     -11.332595      -308.3756
   2   2.0000     -11.244478      -305.9778
   3   2.0000     -11.241187      -305.8882
   4   2.0000     -11.225241      -305.4543
   5   2.0000      -1.380539       -37.5664
   6   2.0000      -1.059618       -28.8337
   7   2.0000      -0.998095       -27.1595
   8   2.0000      -0.876066       -23.8390
   9   2.0000      -0.729668       -19.8553
  10   2.0000      -0.651910       -17.7394
  11   2.0000      -0.634581       -17.2678
  12   2.0000      -0.617310       -16.7979
  13   2.0000      -0.578344       -15.7375
  14   2.0000      -0.566300       -15.4098
  15   2.0000      -0.517565       -14.0836
  16   2.0000      -0.510862       -13.9013
  17   2.0000      -0.503129       -13.6908
  18   2.0000      -0.477954       -13.0058
  19   2.0000      -0.405605       -11.0371
  20   0.0000       0.157067         4.2740
  21   0.0000       0.168338         4.5807
  22   0.0000       0.205562         5.5936
  23   0.0000       0.238051         6.4777
  24   0.0000       0.247114         6.7243

MULLIKEN ATOMIC CHARGES
-----------------------
   0 C :   -0.024221
   1 C :    0.124277
   2 O :   -0.342251
   3 C :   -0.128499
   4 C :   -0.018197
   5 H :    0.061981
   6 H :    0.052515
   7 H :    0.052464
   8 H :    0.049670
   9 H :    0.049626
  10 H :    0.028748
  11 H :    0.046930
  12 H :    0.046957
Sum of atomic charges:    0.0000000

LOEWDIN ATOMIC CHARGES
----------------------
   0 C :   -0.060950
   1 C :    0.011218
   2 O :   -0.099778
   3 C :   -0.061890
   4 C :   -0.044522
   5 H :    0.036736
   6 H :    0.036354
   7 H :    0.036329
   8 H :    0.033424
   9 H :    0.033405
  10 H :    0.022532
  11 H :    0.028567
  12 H :    0.028575

  Mayer bond orders larger than 0.1
B(  0-C ,  1-C ) :   1.0329 B(  0-C ,  5-H ) :   0.9753 B(  0-C ,  6-H ) :   0.9672
B(  0-C ,  7-H ) :   0.9673 B(  1-C ,  2-O ) :   2.0913 B(  1-C ,  3-C ) :   0.9681
B(  3-C ,  4-C ) :   1.0641 B(  3-C ,  8-H ) :   0.9564 B(  3-C ,  9-H ) :   0.9565
B(  4-C , 10-H ) :   0.9803 B(  4-C , 11-H ) :   0.9793 B(  4-C , 12-H ) :   0.9793

E(0)                                       ...   -231.015241984
E(0)                                       ...   -231.015241984
E(CORR)(strong-pairs)                      ...     -0.796994947
E(CORR)(weak-pairs)                        ...     -0.000214537
E(CORR)(corrected)                         ...     -0.797209484
E(TOT)                                     ...   -231.812451468
E(CCSD(T))                                 ...   -231.836054292
FINAL SINGLE POINT ENERGY      -231.836054292385

DIPOLE MOMENT
-------------
                                X             Y             Z
Electronic contribution:      1.76834       3.32874      -0.00070
Nuclear contribution   :     -1.67850      -4.53953       0.00074
                        -----------------------------------------
Total Dipole Moment    :      0.08984      -1.21079       0.00004
                        -----------------------------------------
Magnitude (a.u.)       :      1.21412
Magnitude (Debye)      :      3.08605

Rotational constants in cm-1:     0.317134     0.118544     0.090613
Rotational constants in MHz :  9507.438581  3553.858181  2716.496050

                             ****ORCA TERMINATED NORMALLY****
TOTAL RUN TIME: 0 days 0 hours 0 minutes 53 seconds 900 msec
