                         Program Version 4.1.x  -  STABLE  -
|  1> ! RHF DLPNO-CCSD(T) cc-pVDZ RIJK cc-pVTZ/JK cc-pVDZ/C
|  2> ! KDIIS SOSCF TightSCF TightPNO
|  3>
|  4> %pal nprocs 4 end
|  5>
|  6> %maxcore 8000
|  7>
|  8> %scf maxiter 300
|  9>      shift shift 0.2 erroff 0.1 end
| 10> end
| 11>
| 12> * xyzfile 0 1 2_butanone_skew.xyz
| 13>
| 14>
| 15>                          ****END OF INPUT****

CARTESIAN COORDINATES (ANGSTROEM)
---------------------------------
  C     -1.031460    1.262650    0.071760
  C     -0.620150   -0.199880    0.054230
  O     -1.405760   -1.070470   -0.282540
  C      0.804810   -0.541750    0.472010
  C      1.891790    0.212890   -0.313450
  H     -2.118230    1.338460    0.008540
  H     -0.667580    1.771960    0.970910
  H     -0.592840    1.779190   -0.790750
  H      0.901820   -0.305590    1.541650
  H      0.923800   -1.623100    0.360940
  H      1.812210    0.015270   -1.387810
  H      1.831550    1.295220   -0.161480
  H      2.885400   -0.111140    0.010960

 Total Charge           Charge          ....    0
 Multiplicity           Mult            ....    1
 Number of Electrons    NEL             ....   40
 Basis Dimension        Dim             ....  110

ORBITAL ENERGIES
----------------

  NO   OCC          E(Eh)            E(eV)
   0   2.0000     -20.543717      -559.0230
   1   2.0000     -11.331292      -308.3401
   2   2.0000     -11.243039      -305.9387
   3   2.0000     -11.241380      -305.8935
   4   2.0000     -11.240425      -305.8675
   5   2.0000      -1.377999       -37.4973
   6   2.0000      -1.066197       -29.0127
   7   2.0000      -0.991960       -26.9926
   8   2.0000      -0.886594       -24.1254
   9   2.0000      -0.732323       -19.9275
  10   2.0000      -0.646569       -17.5940
  11   2.0000      -0.643416       -17.5082
  12   2.0000      -0.609157       -16.5760
  13   2.0000      -0.586083       -15.9481
  14   2.0000      -0.557657       -15.1746
  15   2.0000      -0.539277       -14.6745
  16   2.0000      -0.524895       -14.2831
  17   2.0000      -0.502129       -13.6636
  18   2.0000      -0.474187       -12.9033
  19   2.0000      -0.402434       -10.9508
  20   0.0000       0.150022         4.0823
  21   0.0000       0.174828         4.7573
  22   0.0000       0.215161         5.8548
  23   0.0000       0.225682         6.1411
  24   0.0000       0.240897         6.5551

MULLIKEN ATOMIC CHARGES
-----------------------
   0 C :   -0.040000
   1 C :    0.124596
   2 O :   -0.340161
   3 C :   -0.076761
   4 C :   -0.072200
   5 H :    0.064065
   6 H :    0.045999
   7 H :    0.062439
   8 H :    0.049177
   9 H :    0.053823
  10 H :    0.046207
  11 H :    0.037227
  12 H :    0.045591
Sum of atomic charges:   -0.0000000

LOEWDIN ATOMIC CHARGES
----------------------
   0 C :   -0.063244
   1 C :    0.011975
   2 O :   -0.100523
   3 C :   -0.049968
   4 C :   -0.050321
   5 H :    0.037799
   6 H :    0.031359
   7 H :    0.040284
   8 H :    0.032668
   9 H :    0.033251
  10 H :    0.025938
  11 H :    0.021270
  12 H :    0.029513

  Mayer bond orders larger than 0.1
B(  0-C ,  1-C ) :   1.0098 B(  0-C ,  5-H ) :   0.9749 B(  0-C ,  6-H ) :   0.9705
B(  0-C ,  7-H ) :   0.9626 B(  1-C ,  2-O ) :   2.0934 B(  1-C ,  3-C ) :   1.0053
B(  3-C ,  4-C ) :   1.0490 B(  3-C ,  8-H ) :   0.9537 B(  3-C ,  9-H ) :   0.9645
B(  4-C , 10-H ) :   0.9810 B(  4-C , 11-H ) :   0.9793 B(  4-C , 12-H ) :   0.9835

E(0)                                       ...   -231.011899160
E(0)                                       ...   -231.011899160
E(CORR)(strong-pairs)                      ...     -0.797329650
E(CORR)(weak-pairs)                        ...     -0.000214997
E(CORR)(corrected)                         ...     -0.797544647
E(TOT)                                     ...   -231.809443807
E(CCSD(T))                                 ...   -231.833099552
FINAL SINGLE POINT ENERGY      -231.833099552057

DIPOLE MOMENT
-------------
                                X             Y             Z
Electronic contribution:     -4.29164      -3.41880      -0.25988
Nuclear contribution   :      5.16117       4.31670       0.57146
                        -----------------------------------------
Total Dipole Moment    :      0.86954       0.89790       0.31158
                        -----------------------------------------
Magnitude (a.u.)       :      1.28818
Magnitude (Debye)      :      3.27429

Rotational constants in cm-1:     0.257734     0.126644     0.095795
Rotational constants in MHz :  7726.667357  3796.677293  2871.858554

                             ****ORCA TERMINATED NORMALLY****
TOTAL RUN TIME: 0 days 0 hours 1 minutes 12 seconds 835 msec
