                         Program Version 4.1.x  -  STABLE  -
|  1> ! RHF DLPNO-CCSD(T) cc-pVDZ RIJK cc-pVTZ/JK cc-pVDZ/C
|  2> ! KDIIS SOSCF TightSCF TightPNO
|  3>
|  4> %pal nprocs 4 end
|  5>
|  6> %maxcore 8000
|  7>
|  8> %scf maxiter 300
|  9>      shift shift 0.2 erroff 0.1 end
| 10> end
| 11>
| 12> * xyzfile 0 1 2_keto_cyclodecanone.xyz
| 13>
| 14>
| 15>                          ****END OF INPUT****

CARTESIAN COORDINATES (ANGSTROEM)
---------------------------------
  C      2.517710    0.769740    0.000420
  C      2.303800   -0.615280   -0.650190
  C      1.742380   -1.761790    0.218230
  C      0.290400   -1.639230    0.731110
  C     -0.781930   -1.457530   -0.367670
  C     -1.994560   -0.576020   -0.056230
  O     -3.094630   -0.896950   -0.481710
  C      1.273480    1.548140    0.481760
  C      0.190100    1.785520   -0.591980
  C     -1.247440    1.927330   -0.055450
  C     -1.839550    0.726180    0.731150
  H      3.201340    0.656160    0.853370
  H      3.054450    1.390700   -0.730770
  H      1.608780    2.518390    0.871300
  H      0.841830    1.031580    1.343540
  H      3.284840   -0.947530   -1.014600
  H      1.695660   -0.507140   -1.556680
  H      0.212860    0.983300   -1.335160
  H      0.433040    2.697550   -1.152540
  H      2.397410   -1.898590    1.089900
  H      1.827260   -2.687780   -0.367500
  H      0.239380   -0.823390    1.453540
  H      0.053250   -2.544990    1.302500
  H     -1.917080    2.149090   -0.895560
  H     -1.297960    2.797090    0.613030
  H     -1.179720   -2.422070   -0.697070
  H     -0.328680   -1.005130   -1.259180
  H     -2.848570    0.997830    1.054120
  H     -1.247360    0.548220    1.634560

 Total Charge           Charge          ....    0
 Multiplicity           Mult            ....    1
 Number of Electrons    NEL             ....   86
 Basis Dimension        Dim             ....  244

ORBITAL ENERGIES
----------------

  NO   OCC          E(Eh)            E(eV)
   0   2.0000     -20.538651      -558.8851
   1   2.0000     -11.326932      -308.2215
   2   2.0000     -11.240960      -305.8821
   3   2.0000     -11.237200      -305.7798
   4   2.0000     -11.236843      -305.7700
   5   2.0000     -11.236358      -305.7568
   6   2.0000     -11.234393      -305.7034
   7   2.0000     -11.232499      -305.6518
   8   2.0000     -11.232390      -305.6489
   9   2.0000     -11.231524      -305.6253
  10   2.0000     -11.230782      -305.6051
  11   2.0000      -1.372917       -37.3590
  12   2.0000      -1.108201       -30.1557
  13   2.0000      -1.072815       -29.1928
  14   2.0000      -1.055278       -28.7156
  15   2.0000      -0.985160       -26.8076
  16   2.0000      -0.960746       -26.1432
  17   2.0000      -0.897296       -24.4167
  18   2.0000      -0.847561       -23.0633
  19   2.0000      -0.798186       -21.7198
  20   2.0000      -0.765423       -20.8282
  21   2.0000      -0.716836       -19.5061
  22   2.0000      -0.665873       -18.1193
  23   2.0000      -0.663365       -18.0511
  24   2.0000      -0.624517       -16.9940
  25   2.0000      -0.614778       -16.7290
  26   2.0000      -0.612272       -16.6608
  27   2.0000      -0.596907       -16.2427
  28   2.0000      -0.582431       -15.8488
  29   2.0000      -0.570416       -15.5218
  30   2.0000      -0.545031       -14.8311
  31   2.0000      -0.539064       -14.6687
  32   2.0000      -0.533224       -14.5098
  33   2.0000      -0.515126       -14.0173
  34   2.0000      -0.501450       -13.6451
  35   2.0000      -0.496668       -13.5150
  36   2.0000      -0.472662       -12.8618
  37   2.0000      -0.471652       -12.8343
  38   2.0000      -0.459762       -12.5108
  39   2.0000      -0.452180       -12.3044
  40   2.0000      -0.445132       -12.1127
  41   2.0000      -0.439472       -11.9587
  42   2.0000      -0.392604       -10.6833
  43   0.0000       0.149819         4.0768
  44   0.0000       0.170885         4.6500
  45   0.0000       0.185660         5.0521
  46   0.0000       0.200266         5.4495
  47   0.0000       0.201138         5.4732

MULLIKEN ATOMIC CHARGES
-----------------------
   0 C :   -0.021883
   1 C :   -0.071403
   2 C :   -0.026945
   3 C :   -0.071212
   4 C :   -0.043308
   5 C :    0.178918
   6 O :   -0.349510
   7 C :   -0.060313
   8 C :   -0.061431
   9 C :   -0.039465
  10 C :   -0.045027
  11 H :    0.023127
  12 H :    0.026769
  13 H :    0.029391
  14 H :    0.020175
  15 H :    0.030954
  16 H :    0.024028
  17 H :    0.023773
  18 H :    0.033085
  19 H :    0.024264
  20 H :    0.029492
  21 H :    0.027631
  22 H :    0.039300
  23 H :    0.039949
  24 H :    0.034198
  25 H :    0.055697
  26 H :    0.054760
  27 H :    0.055300
  28 H :    0.039684
Sum of atomic charges:    0.0000000

LOEWDIN ATOMIC CHARGES
----------------------
   0 C :   -0.031276
   1 C :   -0.039542
   2 C :   -0.030704
   3 C :   -0.036986
   4 C :   -0.047940
   5 C :    0.025700
   6 O :   -0.105448
   7 C :   -0.037449
   8 C :   -0.038593
   9 C :   -0.023129
  10 C :   -0.047274
  11 H :    0.020185
  12 H :    0.021718
  13 H :    0.022524
  14 H :    0.011154
  15 H :    0.027030
  16 H :    0.012910
  17 H :    0.012568
  18 H :    0.024573
  19 H :    0.021258
  20 H :    0.022460
  21 H :    0.012834
  22 H :    0.026189
  23 H :    0.026621
  24 H :    0.024543
  25 H :    0.035187
  26 H :    0.032856
  27 H :    0.036831
  28 H :    0.021201

  Mayer bond orders larger than 0.1
B(  0-C ,  1-C ) :   1.0460 B(  0-C ,  7-C ) :   1.0585 B(  0-C , 11-H ) :   0.9663
B(  0-C , 12-H ) :   0.9658 B(  1-C ,  2-C ) :   1.0453 B(  1-C , 15-H ) :   0.9685
B(  1-C , 16-H ) :   0.9648 B(  2-C ,  3-C ) :   1.0581 B(  2-C , 19-H ) :   0.9663
B(  2-C , 20-H ) :   0.9667 B(  3-C ,  4-C ) :   1.0056 B(  3-C , 21-H ) :   0.9707
B(  3-C , 22-H ) :   0.9691 B(  4-C ,  5-C ) :   1.0107 B(  4-C , 25-H ) :   0.9575
B(  4-C , 26-H ) :   0.9512 B(  5-C ,  6-O ) :   2.0781 B(  5-C , 10-C ) :   0.9909
B(  7-C ,  8-C ) :   1.0141 B(  7-C , 13-H ) :   0.9678 B(  7-C , 14-H ) :   0.9707
B(  8-C ,  9-C ) :   1.0590 B(  8-C , 17-H ) :   0.9677 B(  8-C , 18-H ) :   0.9676
B(  9-C , 10-C ) :   1.0430 B(  9-C , 23-H ) :   0.9666 B(  9-C , 24-H ) :   0.9656
B( 10-C , 27-H ) :   0.9595 B( 10-C , 28-H ) :   0.9560

E(0)                                       ...   -464.047123686
E(0)                                       ...   -464.047123686
E(CORR)(strong-pairs)                      ...     -1.712432377
E(CORR)(weak-pairs)                        ...     -0.001171244
E(CORR)(corrected)                         ...     -1.713603621
E(TOT)                                     ...   -465.760727307
E(CCSD(T))                                 ...   -465.815505432
FINAL SINGLE POINT ENERGY      -465.815505432070

DIPOLE MOMENT
-------------
                                X             Y             Z
Electronic contribution:     -9.17340      -2.64377      -0.87914
Nuclear contribution   :     10.45183       3.05655       1.25565
                        -----------------------------------------
Total Dipole Moment    :      1.27842       0.41278       0.37651
                        -----------------------------------------
Magnitude (a.u.)       :      1.39518
Magnitude (Debye)      :      3.54626

Rotational constants in cm-1:     0.047751     0.029003     0.020382
Rotational constants in MHz :  1431.524333   869.486120   611.026460

                             ****ORCA TERMINATED NORMALLY****
TOTAL RUN TIME: 0 days 0 hours 9 minutes 43 seconds 395 msec
