                         Program Version 4.1.x  -  STABLE  -
|  1> ! RHF DLPNO-CCSD(T) cc-pVDZ RIJK cc-pVTZ/JK cc-pVDZ/C
|  2> ! KDIIS SOSCF TightSCF TightPNO
|  3>
|  4> %pal nprocs 4 end
|  5>
|  6> %maxcore 8000
|  7>
|  8> %scf maxiter 300
|  9>      shift shift 0.2 erroff 0.1 end
| 10> end
| 11>
| 12> * xyzfile 0 1 2_methoxytetrahydropyran_eq.xyz
| 13>
| 14>
| 15>                          ****END OF INPUT****

CARTESIAN COORDINATES (ANGSTROEM)
---------------------------------
  C      0.562700    0.268100    0.227520
  O      0.155300   -0.992480   -0.309850
  C     -1.126560   -1.405590    0.167140
  C     -2.214290   -0.403560   -0.223930
  C     -1.842920    1.002120    0.273520
  C     -0.414920    1.370700   -0.162690
  O      1.821820    0.580200   -0.276860
  C      2.861850   -0.305660    0.132000
  H     -1.303800   -2.390990   -0.272180
  H     -1.093560   -1.522630    1.264560
  H     -3.177560   -0.724520    0.192220
  H     -2.314140   -0.399100   -1.316760
  H     -1.908660    1.027540    1.370910
  H     -2.555730    1.746800   -0.097910
  H     -0.092080    2.314070    0.291040
  H     -0.360940    1.488060   -1.251430
  H      0.612020    0.161820    1.331800
  H      3.792840    0.113500   -0.254300
  H      2.918110   -0.362450    1.229220
  H      2.711300   -1.310520   -0.274840

 Total Charge           Charge          ....    0
 Multiplicity           Mult            ....    1
 Number of Electrons    NEL             ....   64
 Basis Dimension        Dim             ....  172

ORBITAL ENERGIES
----------------

  NO   OCC          E(Eh)            E(eV)
   0   2.0000     -20.554481      -559.3159
   1   2.0000     -20.550636      -559.2112
   2   2.0000     -11.328365      -308.2605
   3   2.0000     -11.279993      -306.9442
   4   2.0000     -11.271719      -306.7191
   5   2.0000     -11.232067      -305.6401
   6   2.0000     -11.228962      -305.5556
   7   2.0000     -11.223512      -305.4073
   8   2.0000      -1.407975       -38.3130
   9   2.0000      -1.338312       -36.4173
  10   2.0000      -1.077997       -29.3338
  11   2.0000      -1.022830       -27.8326
  12   2.0000      -0.929762       -25.3001
  13   2.0000      -0.871711       -23.7205
  14   2.0000      -0.839699       -22.8494
  15   2.0000      -0.777926       -21.1684
  16   2.0000      -0.684017       -18.6130
  17   2.0000      -0.672005       -18.2862
  18   2.0000      -0.647289       -17.6136
  19   2.0000      -0.623706       -16.9719
  20   2.0000      -0.603358       -16.4182
  21   2.0000      -0.594498       -16.1771
  22   2.0000      -0.583779       -15.8854
  23   2.0000      -0.543100       -14.7785
  24   2.0000      -0.531451       -14.4615
  25   2.0000      -0.509435       -13.8624
  26   2.0000      -0.484119       -13.1736
  27   2.0000      -0.479605       -13.0507
  28   2.0000      -0.471790       -12.8381
  29   2.0000      -0.455380       -12.3915
  30   2.0000      -0.428218       -11.6524
  31   2.0000      -0.403082       -10.9684
  32   0.0000       0.181357         4.9350
  33   0.0000       0.195398         5.3171
  34   0.0000       0.213901         5.8206
  35   0.0000       0.218018         5.9326
  36   0.0000       0.242705         6.6043

MULLIKEN ATOMIC CHARGES
-----------------------
   0 C :    0.422120
   1 O :   -0.512701
   2 C :    0.212202
   3 C :   -0.061441
   4 C :   -0.080042
   5 C :   -0.007331
   6 O :   -0.491045
   7 C :    0.172649
   8 H :    0.038604
   9 H :    0.013926
  10 H :    0.026692
  11 H :    0.039039
  12 H :    0.025840
  13 H :    0.033604
  14 H :    0.034135
  15 H :    0.043622
  16 H :   -0.005508
  17 H :    0.041497
  18 H :    0.011828
  19 H :    0.042312
Sum of atomic charges:    0.0000000

LOEWDIN ATOMIC CHARGES
----------------------
   0 C :    0.016575
   1 O :   -0.093016
   2 C :    0.024198
   3 C :   -0.043244
   4 C :   -0.034596
   5 C :   -0.032302
   6 O :   -0.059230
   7 C :    0.024204
   8 H :    0.022192
   9 H :    0.004341
  10 H :    0.022822
  11 H :    0.022656
  12 H :    0.016621
  13 H :    0.022913
  14 H :    0.025821
  15 H :    0.026512
  16 H :   -0.009841
  17 H :    0.021662
  18 H :    0.006578
  19 H :    0.015134

  Mayer bond orders larger than 0.1
B(  0-C ,  1-O ) :   0.9329 B(  0-C ,  5-C ) :   1.0333 B(  0-C ,  6-O ) :   1.0154
B(  0-C , 16-H ) :   0.9531 B(  1-O ,  2-C ) :   0.9577 B(  2-C ,  3-C ) :   1.0424
B(  2-C ,  8-H ) :   0.9820 B(  2-C ,  9-H ) :   0.9652 B(  3-C ,  4-C ) :   1.0393
B(  3-C , 10-H ) :   0.9686 B(  3-C , 11-H ) :   0.9622 B(  4-C ,  5-C ) :   1.0401
B(  4-C , 12-H ) :   0.9655 B(  4-C , 13-H ) :   0.9758 B(  5-C , 14-H ) :   0.9664
B(  5-C , 15-H ) :   0.9568 B(  6-O ,  7-C ) :   0.9519 B(  7-C , 17-H ) :   0.9947
B(  7-C , 18-H ) :   0.9805 B(  7-C , 19-H ) :   0.9840

E(0)                                       ...   -383.932051472
E(0)                                       ...   -383.932051472
E(CORR)(strong-pairs)                      ...     -1.291435700
E(CORR)(weak-pairs)                        ...     -0.000659984
E(CORR)(corrected)                         ...     -1.292095684
E(TOT)                                     ...   -385.224147156
E(CCSD(T))                                 ...   -385.261474303
FINAL SINGLE POINT ENERGY      -385.261474302975

DIPOLE MOMENT
-------------
                                X             Y             Z
Electronic contribution:      2.40013      -0.25943      -1.68279
Nuclear contribution   :     -2.83627       0.13978       2.27964
                        -----------------------------------------
Total Dipole Moment    :     -0.43614      -0.11965       0.59685
                        -----------------------------------------
Magnitude (a.u.)       :      0.74884
Magnitude (Debye)      :      1.90341

Rotational constants in cm-1:     0.138125     0.048359     0.038463
Rotational constants in MHz :  4140.896098  1449.763307  1153.087351

                             ****ORCA TERMINATED NORMALLY****
TOTAL RUN TIME: 0 days 0 hours 3 minutes 18 seconds 573 msec
