                         Program Version 4.1.x  -  STABLE  -
|  1> ! RHF DLPNO-CCSD(T) cc-pVDZ RIJK cc-pVTZ/JK cc-pVDZ/C
|  2> ! KDIIS SOSCF TightSCF TightPNO
|  3>
|  4> %pal nprocs 4 end
|  5>
|  6> %maxcore 8000
|  7>
|  8> %scf maxiter 300
|  9>      shift shift 0.2 erroff 0.1 end
| 10> end
| 11>
| 12> * xyzfile 0 1 2_Me_THP_ax.xyz
| 13>
| 14>
| 15>                          ****END OF INPUT****

CARTESIAN COORDINATES (ANGSTROEM)
---------------------------------
  C      1.075690    0.040090   -0.502030
  O      0.288670   -1.150990   -0.686820
  C     -0.804710   -1.299220    0.220100
  C     -1.772210   -0.116600    0.149810
  C     -1.018360    1.199840    0.390470
  C      0.184240    1.294570   -0.563350
  C      1.951920   -0.040710    0.754750
  H     -1.294170   -2.233360   -0.070620
  H     -0.434770   -1.424980    1.250540
  H     -2.573840   -0.253630    0.886790
  H     -2.240530   -0.098790   -0.843200
  H     -0.679930    1.242890    1.434790
  H     -1.682880    2.059630    0.245200
  H      0.787420    2.184830   -0.345960
  H     -0.185770    1.400200   -1.591200
  H      1.740140    0.040250   -1.373210
  H      2.522630   -0.974430    0.751940
  H      2.660700    0.794880    0.769210
  H      1.372210    0.002510    1.681860

 Total Charge           Charge          ....    0
 Multiplicity           Mult            ....    1
 Number of Electrons    NEL             ....   56
 Basis Dimension        Dim             ....  158

ORBITAL ENERGIES
----------------

  NO   OCC          E(Eh)            E(eV)
   0   2.0000     -20.542070      -558.9781
   1   2.0000     -11.277059      -306.8644
   2   2.0000     -11.271551      -306.7145
   3   2.0000     -11.228140      -305.5332
   4   2.0000     -11.224649      -305.4382
   5   2.0000     -11.224515      -305.4346
   6   2.0000     -11.220011      -305.3120
   7   2.0000      -1.357992       -36.9528
   8   2.0000      -1.074876       -29.2489
   9   2.0000      -1.042281       -28.3619
  10   2.0000      -0.950183       -25.8558
  11   2.0000      -0.864751       -23.5311
  12   2.0000      -0.838216       -22.8090
  13   2.0000      -0.738679       -20.1005
  14   2.0000      -0.674568       -18.3559
  15   2.0000      -0.634061       -17.2537
  16   2.0000      -0.619787       -16.8653
  17   2.0000      -0.598833       -16.2951
  18   2.0000      -0.576642       -15.6912
  19   2.0000      -0.560427       -15.2500
  20   2.0000      -0.535295       -14.5661
  21   2.0000      -0.531152       -14.4534
  22   2.0000      -0.510438       -13.8897
  23   2.0000      -0.486289       -13.2326
  24   2.0000      -0.472776       -12.8649
  25   2.0000      -0.453747       -12.3471
  26   2.0000      -0.426821       -11.6144
  27   2.0000      -0.396819       -10.7980
  28   0.0000       0.175510         4.7759
  29   0.0000       0.200172         5.4470
  30   0.0000       0.209891         5.7114
  31   0.0000       0.226275         6.1573
  32   0.0000       0.242206         6.5908

MULLIKEN ATOMIC CHARGES
-----------------------
   0 C :    0.105686
   1 O :   -0.507519
   2 C :    0.226462
   3 C :   -0.064902
   4 C :   -0.067365
   5 C :   -0.018100
   6 C :   -0.015342
   7 H :    0.034999
   8 H :    0.013035
   9 H :    0.024105
  10 H :    0.033789
  11 H :    0.025716
  12 H :    0.030062
  13 H :    0.024317
  14 H :    0.032892
  15 H :    0.022544
  16 H :    0.042956
  17 H :    0.029542
  18 H :    0.027124
Sum of atomic charges:   -0.0000000

LOEWDIN ATOMIC CHARGES
----------------------
   0 C :    0.007312
   1 O :   -0.094020
   2 C :    0.021330
   3 C :   -0.043307
   4 C :   -0.035207
   5 C :   -0.035387
   6 C :   -0.055828
   7 H :    0.020799
   8 H :    0.003476
   9 H :    0.021626
  10 H :    0.020497
  11 H :    0.015442
  12 H :    0.021075
  13 H :    0.020598
  14 H :    0.022133
  15 H :    0.021599
  16 H :    0.027331
  17 H :    0.024365
  18 H :    0.016164

  Mayer bond orders larger than 0.1
B(  0-C ,  1-O ) :   0.9445 B(  0-C ,  5-C ) :   1.0270 B(  0-C ,  6-C ) :   1.0396
B(  0-C , 15-H ) :   0.9751 B(  1-O ,  2-C ) :   0.9596 B(  2-C ,  3-C ) :   1.0429
B(  2-C ,  7-H ) :   0.9828 B(  2-C ,  8-H ) :   0.9648 B(  3-C ,  4-C ) :   1.0410
B(  3-C ,  9-H ) :   0.9694 B(  3-C , 10-H ) :   0.9619 B(  4-C ,  5-C ) :   1.0373
B(  4-C , 11-H ) :   0.9667 B(  4-C , 12-H ) :   0.9760 B(  5-C , 13-H ) :   0.9688
B(  5-C , 14-H ) :   0.9638 B(  6-C , 16-H ) :   0.9790 B(  6-C , 17-H ) :   0.9757
B(  6-C , 18-H ) :   0.9759

E(0)                                       ...   -309.072499312
E(0)                                       ...   -309.072499312
E(CORR)(strong-pairs)                      ...     -1.114020309
E(CORR)(weak-pairs)                        ...     -0.000470128
E(CORR)(corrected)                         ...     -1.114490438
E(TOT)                                     ...   -310.186989750
E(CCSD(T))                                 ...   -310.220020827
FINAL SINGLE POINT ENERGY      -310.220020826957

DIPOLE MOMENT
-------------
                                X             Y             Z
Electronic contribution:     -0.13764      -2.40500      -2.54125
Nuclear contribution   :     -0.00445       2.85805       2.92464
                        -----------------------------------------
Total Dipole Moment    :     -0.14209       0.45305       0.38340
                        -----------------------------------------
Magnitude (a.u.)       :      0.61028
Magnitude (Debye)      :      1.55120

Rotational constants in cm-1:     0.122170     0.087328     0.065859
Rotational constants in MHz :  3662.577022  2618.037576  1974.411843

                             ****ORCA TERMINATED NORMALLY****
TOTAL RUN TIME: 0 days 0 hours 2 minutes 25 seconds 761 msec
