                         Program Version 4.2.1 -  RELEASE  -
|  1> ! RHF DLPNO-CCSD(T) cc-pVDZ RIJK cc-pVTZ/JK cc-pVDZ/C
|  2> ! KDIIS SOSCF TightSCF TightPNO
|  3>
|  4> %pal nprocs 10 end
|  5>
|  6> %maxcore 8000
|  7>
|  8> %scf maxiter 300
|  9>      shift shift 0.2 erroff 0.1 end
| 10> end
| 11>
| 12> * xyzfile 0 1 2_methylpropenal_trans.xyz
| 13>
| 14>
| 15>                          ****END OF INPUT****

CARTESIAN COORDINATES (ANGSTROEM)
---------------------------------
  C      0.728700    1.616270    0.000000
  C      0.000000    0.486350    0.000000
  C     -1.508580    0.433140    0.000000
  C      0.751790   -0.794720    0.000000
  O      0.238830   -1.900020    0.000000
  H      0.271030    2.601610    0.000000
  H      1.815710    1.581030    0.000000
  H      1.857140   -0.686360    0.000000
  H     -1.847530   -0.604960    0.000000
  H     -1.919250    0.931300    0.884280
  H     -1.919250    0.931300   -0.884280

 Total Charge           Charge          ....    0
 Multiplicity           Mult            ....    1
 Number of Electrons    NEL             ....   38
 Basis Dimension        Dim             ....  100

ORBITAL ENERGIES
----------------

  NO   OCC          E(Eh)            E(eV)
   0   2.0000     -20.558233      -559.4180
   1   2.0000     -11.338289      -308.5305
   2   2.0000     -11.264656      -306.5269
   3   2.0000     -11.261246      -306.4341
   4   2.0000     -11.235271      -305.7273
   5   2.0000      -1.386626       -37.7320
   6   2.0000      -1.102646       -30.0045
   7   2.0000      -0.954373       -25.9698
   8   2.0000      -0.873736       -23.7756
   9   2.0000      -0.742687       -20.2095
  10   2.0000      -0.672126       -18.2895
  11   2.0000      -0.652951       -17.7677
  12   2.0000      -0.588260       -16.0074
  13   2.0000      -0.582657       -15.8549
  14   2.0000      -0.538744       -14.6600
  15   2.0000      -0.532171       -14.4811
  16   2.0000      -0.524193       -14.2640
  17   2.0000      -0.422929       -11.5085
  18   2.0000      -0.377356       -10.2684
  19   0.0000       0.089705         2.4410
  20   0.0000       0.184591         5.0230
  21   0.0000       0.210252         5.7212
  22   0.0000       0.218737         5.9521
  23   0.0000       0.231299         6.2940

MULLIKEN ATOMIC CHARGES
-----------------------
   0 C :    0.053873
   1 C :   -0.418679
   2 C :    0.049418
   3 C :    0.354873
   4 O :   -0.337928
   5 H :    0.056075
   6 H :    0.054895
   7 H :    0.018437
   8 H :    0.063893
   9 H :    0.052571
  10 H :    0.052571
Sum of atomic charges:   -0.0000000

LOEWDIN ATOMIC CHARGES
----------------------
   0 C :    0.001238
   1 C :   -0.083228
   2 C :   -0.038161
   3 C :    0.042706
   4 O :   -0.089957
   5 H :    0.029230
   6 H :    0.027571
   7 H :    0.005873
   8 H :    0.036965
   9 H :    0.033881
  10 H :    0.033881

  Mayer bond orders larger than 0.100000
B(  0-C ,  1-C ) :   1.9351 B(  0-C ,  5-H ) :   0.9629 B(  0-C ,  6-H ) :   0.9600
B(  1-C ,  2-C ) :   1.0437 B(  1-C ,  3-C ) :   1.0243 B(  2-C ,  8-H ) :   0.9663
B(  2-C ,  9-H ) :   0.9699 B(  2-C , 10-H ) :   0.9699 B(  3-C ,  4-O ) :   2.0649
B(  3-C ,  7-H ) :   0.9653

E(0)                                       ...   -229.818460350
E(0)                                       ...   -229.818460350
E(CORR)(strong-pairs)                      ...     -0.764470427
E(CORR)(weak-pairs)                        ...     -0.000187734
E(CORR)(corrected)                         ...     -0.764658161
E(TOT)                                     ...   -230.583118511
E(CCSD(T))                                 ...   -230.608753703
FINAL SINGLE POINT ENERGY      -230.608753702940

DIPOLE MOMENT
-------------
                                X             Y             Z
Electronic contribution:      2.01836      -3.54244       0.00000
Nuclear contribution   :     -1.77002       4.80995       0.00000
                        -----------------------------------------
Total Dipole Moment    :      0.24834       1.26752       0.00000
                        -----------------------------------------
Magnitude (a.u.)       :      1.29162
Magnitude (Debye)      :      3.28303

Rotational constants in cm-1:     0.283402     0.145054     0.097699
Rotational constants in MHz :  8496.190861  4348.623933  2928.951783

                             ****ORCA TERMINATED NORMALLY****
TOTAL RUN TIME: 0 days 0 hours 0 minutes 23 seconds 1 msec
