                         Program Version 4.1.x  -  STABLE  -
|  1> ! RHF DLPNO-CCSD(T) cc-pVDZ RIJK cc-pVTZ/JK cc-pVDZ/C
|  2> ! KDIIS SOSCF TightSCF TightPNO
|  3>
|  4> %pal nprocs 4 end
|  5>
|  6> %maxcore 8000
|  7>
|  8> %scf maxiter 300
|  9>      shift shift 0.2 erroff 0.1 end
| 10> end
| 11>
| 12> * xyzfile 0 1 2_methylcyclohexanone_ax.xyz
| 13>
| 14>
| 15>                          ****END OF INPUT****

CARTESIAN COORDINATES (ANGSTROEM)
---------------------------------
  C      0.749700    0.786180   -0.379940
  C      0.867250   -0.721400   -0.146170
  C     -0.259130   -1.383200    0.636000
  C     -1.651250   -0.963740    0.119480
  C     -1.783730    0.563460    0.039620
  C     -0.678810    1.166470   -0.841630
  O      1.826030   -1.356900   -0.554840
  C      1.190520    1.551470    0.887930
  H     -0.112110   -2.466020    0.598240
  H     -0.159110   -1.073500    1.687000
  H     -2.426490   -1.387910    0.768010
  H     -1.808730   -1.394880   -0.878770
  H     -1.739510    0.990430    1.050650
  H     -2.765940    0.834340   -0.365660
  H     -0.765630    2.259870   -0.875380
  H     -0.820120    0.812270   -1.871990
  H      1.462980    1.022820   -1.177000
  H      2.209320    1.273390    1.175700
  H      1.176460    2.629630    0.694100
  H      0.533390    1.359240    1.742130

 Total Charge           Charge          ....    0
 Multiplicity           Mult            ....    1
 Number of Electrons    NEL             ....   62
 Basis Dimension        Dim             ....  172

ORBITAL ENERGIES
----------------

  NO   OCC          E(Eh)            E(eV)
   0   2.0000     -20.541230      -558.9553
   1   2.0000     -11.324269      -308.1490
   2   2.0000     -11.241921      -305.9082
   3   2.0000     -11.240899      -305.8804
   4   2.0000     -11.238588      -305.8175
   5   2.0000     -11.238212      -305.8073
   6   2.0000     -11.236964      -305.7733
   7   2.0000     -11.236142      -305.7510
   8   2.0000      -1.374492       -37.4018
   9   2.0000      -1.123945       -30.5841
  10   2.0000      -1.045737       -28.4559
  11   2.0000      -0.997158       -27.1341
  12   2.0000      -0.920731       -25.0544
  13   2.0000      -0.842466       -22.9247
  14   2.0000      -0.811805       -22.0903
  15   2.0000      -0.712189       -19.3796
  16   2.0000      -0.663249       -18.0479
  17   2.0000      -0.633011       -17.2251
  18   2.0000      -0.631194       -17.1757
  19   2.0000      -0.595645       -16.2083
  20   2.0000      -0.586402       -15.9568
  21   2.0000      -0.567159       -15.4332
  22   2.0000      -0.560009       -15.2386
  23   2.0000      -0.549861       -14.9625
  24   2.0000      -0.519025       -14.1234
  25   2.0000      -0.496903       -13.5214
  26   2.0000      -0.487576       -13.2676
  27   2.0000      -0.471740       -12.8367
  28   2.0000      -0.458571       -12.4784
  29   2.0000      -0.452897       -12.3240
  30   2.0000      -0.387945       -10.5565
  31   0.0000       0.147604         4.0165
  32   0.0000       0.171640         4.6706
  33   0.0000       0.192005         5.2247
  34   0.0000       0.210092         5.7169
  35   0.0000       0.221790         6.0352

MULLIKEN ATOMIC CHARGES
-----------------------
   0 C :   -0.183135
   1 C :    0.210648
   2 C :   -0.026026
   3 C :   -0.054756
   4 C :   -0.050166
   5 C :   -0.006612
   6 O :   -0.344405
   7 C :   -0.006091
   8 H :    0.052008
   9 H :    0.050453
  10 H :    0.034080
  11 H :    0.037065
  12 H :    0.028352
  13 H :    0.033417
  14 H :    0.029593
  15 H :    0.035294
  16 H :    0.037830
  17 H :    0.050385
  18 H :    0.040680
  19 H :    0.031387
Sum of atomic charges:    0.0000000

LOEWDIN ATOMIC CHARGES
----------------------
   0 C :   -0.051348
   1 C :    0.022980
   2 C :   -0.043028
   3 C :   -0.029364
   4 C :   -0.035017
   5 C :   -0.025328
   6 O :   -0.101199
   7 C :   -0.039493
   8 H :    0.032927
   9 H :    0.032813
  10 H :    0.024226
  11 H :    0.021315
  12 H :    0.016880
  13 H :    0.024554
  14 H :    0.022439
  15 H :    0.022257
  16 H :    0.031118
  17 H :    0.029400
  18 H :    0.026593
  19 H :    0.017276

  Mayer bond orders larger than 0.1
B(  0-C ,  1-C ) :   0.9823 B(  0-C ,  5-C ) :   1.0268 B(  0-C ,  7-C ) :   1.0279
B(  0-C , 16-H ) :   0.9554 B(  1-C ,  2-C ) :   0.9956 B(  1-C ,  6-O ) :   2.0934
B(  2-C ,  3-C ) :   1.0345 B(  2-C ,  8-H ) :   0.9635 B(  2-C ,  9-H ) :   0.9506
B(  3-C ,  4-C ) :   1.0408 B(  3-C , 10-H ) :   0.9714 B(  3-C , 11-H ) :   0.9655
B(  4-C ,  5-C ) :   1.0363 B(  4-C , 12-H ) :   0.9657 B(  4-C , 13-H ) :   0.9715
B(  5-C , 14-H ) :   0.9677 B(  5-C , 15-H ) :   0.9663 B(  7-C , 17-H ) :   0.9807
B(  7-C , 18-H ) :   0.9798 B(  7-C , 19-H ) :   0.9773

E(0)                                       ...   -346.961624117
E(0)                                       ...   -346.961624117
E(CORR)(strong-pairs)                      ...     -1.237535508
E(CORR)(weak-pairs)                        ...     -0.000539429
E(CORR)(corrected)                         ...     -1.238074937
E(TOT)                                     ...   -348.199699054
E(CCSD(T))                                 ...   -348.239241396
FINAL SINGLE POINT ENERGY      -348.239241396443

DIPOLE MOMENT
-------------
                                X             Y             Z
Electronic contribution:      4.33868      -4.29423      -2.21644
Nuclear contribution   :     -5.38409       5.02242       2.63486
                        -----------------------------------------
Total Dipole Moment    :     -1.04541       0.72819       0.41843
                        -----------------------------------------
Magnitude (a.u.)       :      1.34098
Magnitude (Debye)      :      3.40849

Rotational constants in cm-1:     0.083831     0.069888     0.048204
Rotational constants in MHz :  2513.192376  2095.196921  1445.115568

                             ****ORCA TERMINATED NORMALLY****
TOTAL RUN TIME: 0 days 0 hours 3 minutes 52 seconds 779 msec
