                         Program Version 4.1.x  -  STABLE  -
|  1> ! RHF DLPNO-CCSD(T) cc-pVDZ RIJK cc-pVTZ/JK cc-pVDZ/C
|  2> ! KDIIS SOSCF TightSCF TightPNO
|  3>
|  4> %pal nprocs 4 end
|  5>
|  6> %maxcore 8000
|  7>
|  8> %scf maxiter 300
|  9>      shift shift 0.2 erroff 0.1 end
| 10> end
| 11>
| 12> * xyzfile 0 1 2_methylthiane_ax.xyz
| 13>
| 14>
| 15>                          ****END OF INPUT****

CARTESIAN COORDINATES (ANGSTROEM)
---------------------------------
  C     -0.220320    1.355550   -0.768680
  C      1.021470    1.474060    0.131670
  C      1.893780    0.208990    0.127240
  C      1.139610   -1.032850    0.609580
  S     -0.326520   -1.425680   -0.430110
  C     -1.186460    0.215830   -0.391270
  C     -1.939040    0.453540    0.924240
  H      2.272710    0.026940   -0.886660
  H      2.767750    0.363850    0.774710
  H      0.827980   -0.917400    1.654290
  H      1.771240   -1.924630    0.555570
  H      1.620840    2.328810   -0.204640
  H      0.717710    1.702740    1.162500
  H     -1.924750    0.116440   -1.195350
  H     -0.778920    2.301540   -0.743070
  H      0.104650    1.206760   -1.805840
  H     -2.661630   -0.346380    1.107100
  H     -2.483070    1.405990    0.881700
  H     -1.264430    0.495480    1.784730

 Total Charge           Charge          ....    0
 Multiplicity           Mult            ....    1
 Number of Electrons    NEL             ....   64
 Basis Dimension        Dim             ....  162

ORBITAL ENERGIES
----------------

  NO   OCC          E(Eh)            E(eV)
   0   2.0000     -91.928376     -2501.4983
   1   2.0000     -11.262806      -306.4765
   2   2.0000     -11.256525      -306.3056
   3   2.0000     -11.232396      -305.6490
   4   2.0000     -11.232114      -305.6414
   5   2.0000     -11.230409      -305.5950
   6   2.0000     -11.226614      -305.4917
   7   2.0000      -8.931438      -243.0368
   8   2.0000      -6.613301      -179.9571
   9   2.0000      -6.611816      -179.9167
  10   2.0000      -6.609745      -179.8603
  11   2.0000      -1.118945       -30.4480
  12   2.0000      -1.040118       -28.3031
  13   2.0000      -1.004014       -27.3206
  14   2.0000      -0.927886       -25.2491
  15   2.0000      -0.837521       -22.7901
  16   2.0000      -0.821400       -22.3514
  17   2.0000      -0.729677       -19.8555
  18   2.0000      -0.650961       -17.7136
  19   2.0000      -0.614747       -16.7281
  20   2.0000      -0.607732       -16.5372
  21   2.0000      -0.578599       -15.7445
  22   2.0000      -0.563126       -15.3234
  23   2.0000      -0.555441       -15.1143
  24   2.0000      -0.519535       -14.1373
  25   2.0000      -0.504537       -13.7291
  26   2.0000      -0.493960       -13.4413
  27   2.0000      -0.479852       -13.0574
  28   2.0000      -0.463746       -12.6192
  29   2.0000      -0.427866       -11.6428
  30   2.0000      -0.402169       -10.9436
  31   2.0000      -0.328327        -8.9342
  32   0.0000       0.170388         4.6365
  33   0.0000       0.189149         5.1470
  34   0.0000       0.203117         5.5271
  35   0.0000       0.211646         5.7592
  36   0.0000       0.221527         6.0280

MULLIKEN ATOMIC CHARGES
-----------------------
   0 C :    0.019220
   1 C :   -0.058624
   2 C :   -0.024725
   3 C :   -0.122206
   4 S :   -0.064559
   5 C :   -0.254941
   6 C :    0.031412
   7 H :    0.037697
   8 H :    0.029033
   9 H :    0.058265
  10 H :    0.066072
  11 H :    0.030792
  12 H :    0.025146
  13 H :    0.057016
  14 H :    0.027739
  15 H :    0.036606
  16 H :    0.044177
  17 H :    0.030134
  18 H :    0.031745
Sum of atomic charges:   -0.0000000

LOEWDIN ATOMIC CHARGES
----------------------
   0 C :   -0.037925
   1 C :   -0.035824
   2 C :   -0.044921
   3 C :   -0.128560
   4 S :    0.179494
   5 C :   -0.128699
   6 C :   -0.057022
   7 H :    0.021026
   8 H :    0.022470
   9 H :    0.013109
  10 H :    0.024726
  11 H :    0.023692
  12 H :    0.016149
  13 H :    0.023083
  14 H :    0.021078
  15 H :    0.022450
  16 H :    0.025947
  17 H :    0.021633
  18 H :    0.018091

  Mayer bond orders larger than 0.1
B(  0-C ,  1-C ) :   1.0410 B(  0-C ,  5-C ) :   1.0175 B(  0-C , 14-H ) :   0.9655
B(  0-C , 15-H ) :   0.9652 B(  1-C ,  2-C ) :   1.0454 B(  1-C , 11-H ) :   0.9727
B(  1-C , 12-H ) :   0.9657 B(  2-C ,  3-C ) :   1.0253 B(  2-C ,  7-H ) :   0.9640
B(  2-C ,  8-H ) :   0.9675 B(  3-C ,  4-S ) :   1.0035 B(  3-C ,  9-H ) :   0.9646
B(  3-C , 10-H ) :   0.9744 B(  4-S ,  5-C ) :   1.0062 B(  5-C ,  6-C ) :   1.0111
B(  5-C , 13-H ) :   0.9652 B(  6-C , 16-H ) :   0.9817 B(  6-C , 17-H ) :   0.9755
B(  6-C , 18-H ) :   0.9790

E(0)                                       ...   -631.747568855
E(0)                                       ...   -631.747568855
E(CORR)(strong-pairs)                      ...     -1.075456297
E(CORR)(weak-pairs)                        ...     -0.000430966
E(CORR)(corrected)                         ...     -1.075887262
E(TOT)                                     ...   -632.823456117
E(CCSD(T))                                 ...   -632.857605481
FINAL SINGLE POINT ENERGY      -632.857605481287

DIPOLE MOMENT
-------------
                                X             Y             Z
Electronic contribution:     -0.81446      -6.36740      -2.92131
Nuclear contribution   :      1.01368       7.03683       3.20428
                        -----------------------------------------
Total Dipole Moment    :      0.19922       0.66943       0.28296
                        -----------------------------------------
Magnitude (a.u.)       :      0.75359
Magnitude (Debye)      :      1.91547

Rotational constants in cm-1:     0.085367     0.075543     0.051358
Rotational constants in MHz :  2559.232101  2264.709088  1539.677247

                             ****ORCA TERMINATED NORMALLY****
TOTAL RUN TIME: 0 days 0 hours 2 minutes 32 seconds 209 msec
