                         Program Version 4.1.x  -  STABLE  -
|  1> ! RHF DLPNO-CCSD(T) cc-pVDZ RIJK cc-pVTZ/JK cc-pVDZ/C
|  2> ! KDIIS SOSCF TightSCF TightPNO
|  3>
|  4> %pal nprocs 4 end
|  5>
|  6> %maxcore 8000
|  7>
|  8> %scf maxiter 300
|  9>      shift shift 0.2 erroff 0.1 end
| 10> end
| 11>
| 12> * xyzfile 0 1 2_methyl_1_3_butadiene_t.xyz
| 13>
| 14>
| 15>                          ****END OF INPUT****

CARTESIAN COORDINATES (ANGSTROEM)
---------------------------------
  C     -1.590620   -0.912550   -0.000000
  C     -0.516500   -0.099520   -0.000010
  C     -0.662180    1.403480    0.000000
  C      0.834040   -0.678560    0.000000
  C      1.989710    0.005780    0.000000
  H     -2.603420   -0.520930    0.000010
  H     -1.482080   -1.993880    0.000020
  H      0.872960   -1.767500   -0.000000
  H      2.944480   -0.510400   -0.000010
  H      2.024240    1.091160    0.000010
  H     -0.183930    1.846570    0.881800
  H     -0.183930    1.846580   -0.881790
  H     -1.715000    1.696580    0.000010

 Total Charge           Charge          ....    0
 Multiplicity           Mult            ....    1
 Number of Electrons    NEL             ....   38
 Basis Dimension        Dim             ....  110

ORBITAL ENERGIES
----------------

  NO   OCC          E(Eh)            E(eV)
   0   2.0000     -11.247538      -306.0611
   1   2.0000     -11.241484      -305.8963
   2   2.0000     -11.233725      -305.6852
   3   2.0000     -11.229816      -305.5788
   4   2.0000     -11.229555      -305.5717
   5   2.0000      -1.105372       -30.0787
   6   2.0000      -1.005971       -27.3739
   7   2.0000      -0.936772       -25.4909
   8   2.0000      -0.817992       -22.2587
   9   2.0000      -0.713260       -19.4088
  10   2.0000      -0.645723       -17.5710
  11   2.0000      -0.626246       -17.0410
  12   2.0000      -0.570004       -15.5106
  13   2.0000      -0.555420       -15.1138
  14   2.0000      -0.539387       -14.6775
  15   2.0000      -0.519051       -14.1241
  16   2.0000      -0.479187       -13.0393
  17   2.0000      -0.420571       -11.4443
  18   2.0000      -0.317345        -8.6354
  19   0.0000       0.120358         3.2751
  20   0.0000       0.191018         5.1979
  21   0.0000       0.211433         5.7534
  22   0.0000       0.221662         6.0317
  23   0.0000       0.240514         6.5447

MULLIKEN ATOMIC CHARGES
-----------------------
   0 C :    0.021835
   1 C :   -0.301403
   2 C :    0.050070
   3 C :   -0.052542
   4 C :   -0.038592
   5 H :    0.038875
   6 H :    0.037173
   7 H :    0.019671
   8 H :    0.050505
   9 H :    0.042907
  10 H :    0.048258
  11 H :    0.048258
  12 H :    0.034983
Sum of atomic charges:   -0.0000000

LOEWDIN ATOMIC CHARGES
----------------------
   0 C :   -0.051814
   1 C :   -0.039185
   2 C :   -0.036608
   3 C :   -0.022642
   4 C :   -0.051863
   5 H :    0.020027
   6 H :    0.019907
   7 H :    0.028938
   8 H :    0.025183
   9 H :    0.020132
  10 H :    0.029821
  11 H :    0.029820
  12 H :    0.028285

  Mayer bond orders larger than 0.1
B(  0-C ,  1-C ) :   1.9415 B(  0-C ,  5-H ) :   0.9583 B(  0-C ,  6-H ) :   0.9618
B(  1-C ,  2-C ) :   1.0713 B(  1-C ,  3-C ) :   1.0748 B(  2-C , 10-H ) :   0.9616
B(  2-C , 11-H ) :   0.9616 B(  2-C , 12-H ) :   0.9722 B(  3-C ,  4-C ) :   1.9687
B(  3-C ,  7-H ) :   0.9701 B(  4-C ,  8-H ) :   0.9660 B(  4-C ,  9-H ) :   0.9617

E(0)                                       ...   -193.974176062
E(0)                                       ...   -193.974176062
E(CORR)(strong-pairs)                      ...     -0.738715371
E(CORR)(weak-pairs)                        ...     -0.000188675
E(CORR)(corrected)                         ...     -0.738904046
E(TOT)                                     ...   -194.713080108
E(CCSD(T))                                 ...   -194.738767606
FINAL SINGLE POINT ENERGY      -194.738767606171

DIPOLE MOMENT
-------------
                                X             Y             Z
Electronic contribution:      0.34053      -1.67396      -0.00004
Nuclear contribution   :     -0.34226       1.76868       0.00005
                        -----------------------------------------
Total Dipole Moment    :     -0.00173       0.09472       0.00001
                        -----------------------------------------
Magnitude (a.u.)       :      0.09474
Magnitude (Debye)      :      0.24080

Rotational constants in cm-1:     0.283298     0.138122     0.094484
Rotational constants in MHz :  8493.064090  4140.801776  2832.550334

                             ****ORCA TERMINATED NORMALLY****
TOTAL RUN TIME: 0 days 0 hours 1 minutes 53 seconds 259 msec
