                         Program Version 4.1.x  -  STABLE  -
|  1> ! RHF DLPNO-CCSD(T) cc-pVDZ RIJK cc-pVTZ/JK cc-pVDZ/C
|  2> ! KDIIS SOSCF TightSCF TightPNO
|  3>
|  4> %pal nprocs 4 end
|  5>
|  6> %maxcore 8000
|  7>
|  8> %scf maxiter 300
|  9>      shift shift 0.2 erroff 0.1 end
| 10> end
| 11>
| 12> * xyzfile 0 1 2_methoxytetrahydropyran_ax.xyz
| 13>
| 14>
| 15>                          ****END OF INPUT****

CARTESIAN COORDINATES (ANGSTROEM)
---------------------------------
  C      0.571070   -0.409750    0.650040
  O      0.123590    0.918680    0.882000
  C     -0.767530    1.427560   -0.124990
  C     -2.006770    0.547660   -0.280270
  C     -1.591650   -0.900680   -0.580020
  C     -0.592400   -1.387930    0.480060
  O      1.387420   -0.504330   -0.500900
  C      2.607500    0.223760   -0.410730
  H     -1.025330    2.436230    0.208720
  H     -0.233380    1.505540   -1.082630
  H     -2.640800    0.949470   -1.080640
  H     -2.591070    0.584790    0.648840
  H     -1.126190   -0.952750   -1.571800
  H     -2.467820   -1.559070   -0.601400
  H     -0.190180   -2.374210    0.226660
  H     -1.094190   -1.472900    1.451920
  H      1.166650   -0.645630    1.543680
  H      3.158750    0.025540   -1.332230
  H      2.429220    1.300710   -0.312540
  H      3.204970   -0.116220    0.448050

 Total Charge           Charge          ....    0
 Multiplicity           Mult            ....    1
 Number of Electrons    NEL             ....   64
 Basis Dimension        Dim             ....  172

ORBITAL ENERGIES
----------------

  NO   OCC          E(Eh)            E(eV)
   0   2.0000     -20.555434      -559.3418
   1   2.0000     -20.551667      -559.2393
   2   2.0000     -11.327284      -308.2311
   3   2.0000     -11.274389      -306.7917
   4   2.0000     -11.273743      -306.7741
   5   2.0000     -11.225871      -305.4715
   6   2.0000     -11.225253      -305.4547
   7   2.0000     -11.224546      -305.4354
   8   2.0000      -1.405348       -38.2415
   9   2.0000      -1.334715       -36.3194
  10   2.0000      -1.074385       -29.2355
  11   2.0000      -1.023749       -27.8576
  12   2.0000      -0.928519       -25.2663
  13   2.0000      -0.867819       -23.6146
  14   2.0000      -0.850399       -23.1405
  15   2.0000      -0.754471       -20.5302
  16   2.0000      -0.694346       -18.8941
  17   2.0000      -0.662930       -18.0393
  18   2.0000      -0.652315       -17.7504
  19   2.0000      -0.626928       -17.0596
  20   2.0000      -0.601493       -16.3675
  21   2.0000      -0.582466       -15.8497
  22   2.0000      -0.569781       -15.5045
  23   2.0000      -0.542646       -14.7661
  24   2.0000      -0.535832       -14.5807
  25   2.0000      -0.519449       -14.1349
  26   2.0000      -0.500315       -13.6143
  27   2.0000      -0.477569       -12.9953
  28   2.0000      -0.458993       -12.4898
  29   2.0000      -0.437996       -11.9185
  30   2.0000      -0.430090       -11.7033
  31   2.0000      -0.409705       -11.1486
  32   0.0000       0.182955         4.9785
  33   0.0000       0.201311         5.4780
  34   0.0000       0.210731         5.7343
  35   0.0000       0.226574         6.1654
  36   0.0000       0.242902         6.6097

MULLIKEN ATOMIC CHARGES
-----------------------
   0 C :    0.387437
   1 O :   -0.517448
   2 C :    0.217592
   3 C :   -0.065659
   4 C :   -0.068684
   5 C :    0.001255
   6 O :   -0.502170
   7 C :    0.172351
   8 H :    0.034349
   9 H :    0.027262
  10 H :    0.026507
  11 H :    0.032423
  12 H :    0.043157
  13 H :    0.028193
  14 H :    0.039080
  15 H :    0.031495
  16 H :    0.022091
  17 H :    0.040702
  18 H :    0.033003
  19 H :    0.017064
Sum of atomic charges:   -0.0000000

LOEWDIN ATOMIC CHARGES
----------------------
   0 C :    0.018831
   1 O :   -0.090177
   2 C :    0.029362
   3 C :   -0.042906
   4 C :   -0.031666
   5 C :   -0.033723
   6 O :   -0.084488
   7 C :    0.019189
   8 H :    0.020466
   9 H :    0.008661
  10 H :    0.023018
  11 H :    0.019754
  12 H :    0.022880
  13 H :    0.020407
  14 H :    0.027065
  15 H :    0.023195
  16 H :    0.009131
  17 H :    0.021109
  18 H :    0.011410
  19 H :    0.008484

  Mayer bond orders larger than 0.1
B(  0-C ,  1-O ) :   0.9705 B(  0-C ,  5-C ) :   1.0444 B(  0-C ,  6-O ) :   0.9575
B(  0-C , 16-H ) :   0.9744 B(  1-O ,  2-C ) :   0.9361 B(  2-C ,  3-C ) :   1.0486
B(  2-C ,  8-H ) :   0.9827 B(  2-C ,  9-H ) :   0.9658 B(  3-C ,  4-C ) :   1.0431
B(  3-C , 10-H ) :   0.9693 B(  3-C , 11-H ) :   0.9623 B(  4-C ,  5-C ) :   1.0386
B(  4-C , 12-H ) :   0.9650 B(  4-C , 13-H ) :   0.9757 B(  5-C , 14-H ) :   0.9656
B(  5-C , 15-H ) :   0.9602 B(  6-O ,  7-C ) :   0.9586 B(  7-C , 17-H ) :   0.9941
B(  7-C , 18-H ) :   0.9831 B(  7-C , 19-H ) :   0.9837

E(0)                                       ...   -383.934089155
E(0)                                       ...   -383.934089155
E(CORR)(strong-pairs)                      ...     -1.292213648
E(CORR)(weak-pairs)                        ...     -0.000618528
E(CORR)(corrected)                         ...     -1.292832176
E(TOT)                                     ...   -385.226921331
E(CCSD(T))                                 ...   -385.264340636
FINAL SINGLE POINT ENERGY      -385.264340636455

DIPOLE MOMENT
-------------
                                X             Y             Z
Electronic contribution:      1.36734       0.31256       1.39267
Nuclear contribution   :     -1.43371      -0.32281      -1.49765
                        -----------------------------------------
Total Dipole Moment    :     -0.06637      -0.01025      -0.10498
                        -----------------------------------------
Magnitude (a.u.)       :      0.12462
Magnitude (Debye)      :      0.31676

Rotational constants in cm-1:     0.114025     0.055881     0.046537
Rotational constants in MHz :  3418.395562  1675.283666  1395.130379

                             ****ORCA TERMINATED NORMALLY****
TOTAL RUN TIME: 0 days 0 hours 3 minutes 27 seconds 998 msec
