                         Program Version 4.2.1 -  RELEASE  -
|  1> ! RHF DLPNO-CCSD(T) cc-pVDZ RIJK cc-pVTZ/JK cc-pVDZ/C
|  2> ! KDIIS SOSCF TightSCF TightPNO
|  3>
|  4> %pal nprocs 10 end
|  5>
|  6> %maxcore 8000
|  7>
|  8> %scf maxiter 300
|  9>      shift shift 0.2 erroff 0.1 end
| 10> end
| 11>
| 12> * xyzfile 0 1 2_methylpropenal_cis.xyz
| 13>
| 14>
| 15>                          ****END OF INPUT****

CARTESIAN COORDINATES (ANGSTROEM)
---------------------------------
  C      0.392350    1.464560   -0.000050
  C      0.422900    0.122740   -0.000170
  C      1.684030   -0.703800    0.000210
  C     -0.867200   -0.631680   -0.000850
  O     -1.976570   -0.129580    0.000490
  H      1.302540    2.057250    0.000250
  H     -0.558270    1.989280   -0.000290
  H     -0.761300   -1.738620    0.000300
  H      1.730920   -1.355940    0.881370
  H      1.731610   -1.355660   -0.881110
  H      2.574680   -0.070570    0.000650

 Total Charge           Charge          ....    0
 Multiplicity           Mult            ....    1
 Number of Electrons    NEL             ....   38
 Basis Dimension        Dim             ....  100

ORBITAL ENERGIES
----------------

  NO   OCC          E(Eh)            E(eV)
   0   2.0000     -20.557344      -559.3938
   1   2.0000     -11.338569      -308.5381
   2   2.0000     -11.257046      -306.3198
   3   2.0000     -11.255417      -306.2755
   4   2.0000     -11.247492      -306.0598
   5   2.0000      -1.385592       -37.7039
   6   2.0000      -1.098607       -29.8946
   7   2.0000      -0.954392       -25.9703
   8   2.0000      -0.879876       -23.9426
   9   2.0000      -0.735578       -20.0161
  10   2.0000      -0.671275       -18.2663
  11   2.0000      -0.646675       -17.5969
  12   2.0000      -0.588874       -16.0241
  13   2.0000      -0.588422       -16.0118
  14   2.0000      -0.554432       -15.0869
  15   2.0000      -0.526804       -14.3351
  16   2.0000      -0.524418       -14.2701
  17   2.0000      -0.421023       -11.4566
  18   2.0000      -0.371803       -10.1173
  19   0.0000       0.089540         2.4365
  20   0.0000       0.179396         4.8816
  21   0.0000       0.212822         5.7912
  22   0.0000       0.217894         5.9292
  23   0.0000       0.232907         6.3377

MULLIKEN ATOMIC CHARGES
-----------------------
   0 C :    0.098003
   1 C :   -0.456160
   2 C :    0.051945
   3 C :    0.352144
   4 O :   -0.330726
   5 H :    0.052459
   6 H :    0.073432
   7 H :    0.015582
   8 H :    0.050396
   9 H :    0.050380
  10 H :    0.042545
Sum of atomic charges:    0.0000000

LOEWDIN ATOMIC CHARGES
----------------------
   0 C :    0.025870
   1 C :   -0.107557
   2 C :   -0.040930
   3 C :    0.049095
   4 O :   -0.087176
   5 H :    0.027045
   6 H :    0.036469
   7 H :    0.002213
   8 H :    0.031409
   9 H :    0.031405
  10 H :    0.032158

  Mayer bond orders larger than 0.100000
B(  0-C ,  1-C ) :   1.9523 B(  0-C ,  5-H ) :   0.9630 B(  0-C ,  6-H ) :   0.9494
B(  1-C ,  2-C ) :   1.0560 B(  1-C ,  3-C ) :   1.0067 B(  2-C ,  8-H ) :   0.9658
B(  2-C ,  9-H ) :   0.9658 B(  2-C , 10-H ) :   0.9731 B(  3-C ,  4-O ) :   2.0920
B(  3-C ,  7-H ) :   0.9653

E(0)                                       ...   -229.815883855
E(0)                                       ...   -229.815883855
E(CORR)(strong-pairs)                      ...     -0.764670097
E(CORR)(weak-pairs)                        ...     -0.000182492
E(CORR)(corrected)                         ...     -0.764852589
E(TOT)                                     ...   -230.580736444
E(CCSD(T))                                 ...   -230.606262637
FINAL SINGLE POINT ENERGY      -230.606262636830

DIPOLE MOMENT
-------------
                                X             Y             Z
Electronic contribution:     -4.85945       0.30161      -0.00196
Nuclear contribution   :      6.09802      -0.48498       0.00121
                        -----------------------------------------
Total Dipole Moment    :      1.23857      -0.18337      -0.00075
                        -----------------------------------------
Magnitude (a.u.)       :      1.25207
Magnitude (Debye)      :      3.18250

Rotational constants in cm-1:     0.315248     0.133741     0.095571
Rotational constants in MHz :  9450.910943  4009.463824  2865.132120

                             ****ORCA TERMINATED NORMALLY****
TOTAL RUN TIME: 0 days 0 hours 0 minutes 50 seconds 535 msec
