                         Program Version 4.1.x  -  STABLE  -
|  1> ! RHF DLPNO-CCSD(T) cc-pVDZ RIJK cc-pVTZ/JK cc-pVDZ/C
|  2> ! KDIIS SOSCF TightSCF TightPNO
|  3>
|  4> %pal nprocs 4 end
|  5>
|  6> %maxcore 8000
|  7>
|  8> %scf maxiter 300
|  9>      shift shift 0.2 erroff 0.1 end
| 10> end
| 11>
| 12> * xyzfile 0 1 2_methylpiperidine_ax.xyz
| 13>
| 14>
| 15>                          ****END OF INPUT****

CARTESIAN COORDINATES (ANGSTROEM)
---------------------------------
  C     -1.000230    1.226460    0.355200
  C      0.207950    1.283920   -0.595020
  C      1.095300    0.026120   -0.501010
  N      0.240820   -1.160470   -0.692580
  C     -0.867030   -1.290050    0.260510
  C     -1.791630   -0.073950    0.146470
  C      1.956930   -0.003300    0.778990
  H      0.807620   -2.003880   -0.696290
  H      1.784900    0.042940   -1.355320
  H     -0.530360   -1.388250    1.310070
  H     -1.413820   -2.207560    0.015510
  H     -0.156840    1.364810   -1.626540
  H      0.812810    2.176650   -0.394170
  H     -2.604620   -0.155550    0.878410
  H     -2.246190   -0.070630   -0.852830
  H     -0.663180    1.284220    1.399470
  H     -1.644900    2.098570    0.191610
  H      1.353890    0.002940    1.692360
  H      2.583850   -0.902800    0.799420
  H      2.623400    0.866650    0.815530

 Total Charge           Charge          ....    0
 Multiplicity           Mult            ....    1
 Number of Electrons    NEL             ....   56
 Basis Dimension        Dim             ....  163

ORBITAL ENERGIES
----------------

  NO   OCC          E(Eh)            E(eV)
   0   2.0000     -15.533103      -422.6772
   1   2.0000     -11.251223      -306.1613
   2   2.0000     -11.245527      -306.0063
   3   2.0000     -11.220236      -305.3181
   4   2.0000     -11.217697      -305.2491
   5   2.0000     -11.217470      -305.2429
   6   2.0000     -11.216560      -305.2181
   7   2.0000      -1.202523       -32.7223
   8   2.0000      -1.050565       -28.5873
   9   2.0000      -1.028602       -27.9897
  10   2.0000      -0.936232       -25.4762
  11   2.0000      -0.851437       -23.1688
  12   2.0000      -0.821605       -22.3570
  13   2.0000      -0.727923       -19.8078
  14   2.0000      -0.677235       -18.4285
  15   2.0000      -0.623120       -16.9560
  16   2.0000      -0.607362       -16.5271
  17   2.0000      -0.573762       -15.6129
  18   2.0000      -0.558053       -15.1854
  19   2.0000      -0.552774       -15.0417
  20   2.0000      -0.549316       -14.9476
  21   2.0000      -0.516936       -14.0665
  22   2.0000      -0.503897       -13.7117
  23   2.0000      -0.476371       -12.9627
  24   2.0000      -0.456039       -12.4095
  25   2.0000      -0.437942       -11.9170
  26   2.0000      -0.430416       -11.7122
  27   2.0000      -0.354484        -9.6460
  28   0.0000       0.172936         4.7058
  29   0.0000       0.205071         5.5803
  30   0.0000       0.212476         5.7818
  31   0.0000       0.219885         5.9834
  32   0.0000       0.242562         6.6004

MULLIKEN ATOMIC CHARGES
-----------------------
   0 C :   -0.061245
   1 C :    0.009837
   2 C :   -0.026755
   3 N :   -0.361199
   4 C :    0.107809
   5 C :   -0.031672
   6 C :   -0.000205
   7 H :    0.092356
   8 H :    0.015201
   9 H :    0.005918
  10 H :    0.025926
  11 H :    0.030432
  12 H :    0.019391
  13 H :    0.019604
  14 H :    0.030509
  15 H :    0.021611
  16 H :    0.025735
  17 H :    0.028869
  18 H :    0.021023
  19 H :    0.026853
Sum of atomic charges:   -0.0000000

LOEWDIN ATOMIC CHARGES
----------------------
   0 C :   -0.035465
   1 C :   -0.026330
   2 C :   -0.025067
   3 N :   -0.036563
   4 C :   -0.012819
   5 C :   -0.033491
   6 C :   -0.059710
   7 H :    0.031671
   8 H :    0.017809
   9 H :   -0.003610
  10 H :    0.017542
  11 H :    0.021267
  12 H :    0.017556
  13 H :    0.018480
  14 H :    0.019260
  15 H :    0.014331
  16 H :    0.019834
  17 H :    0.016075
  18 H :    0.017658
  19 H :    0.021571

  Mayer bond orders larger than 0.1
B(  0-C ,  1-C ) :   1.0405 B(  0-C ,  5-C ) :   1.0457 B(  0-C , 15-H ) :   0.9653
B(  0-C , 16-H ) :   0.9737 B(  1-C ,  2-C ) :   1.0331 B(  1-C , 11-H ) :   0.9633
B(  1-C , 12-H ) :   0.9713 B(  2-C ,  3-N ) :   1.0169 B(  2-C ,  6-C ) :   1.0304
B(  2-C ,  8-H ) :   0.9686 B(  3-N ,  4-C ) :   1.0149 B(  3-N ,  7-H ) :   0.9707
B(  4-C ,  5-C ) :   1.0455 B(  4-C ,  9-H ) :   0.9601 B(  4-C , 10-H ) :   0.9757
B(  5-C , 13-H ) :   0.9722 B(  5-C , 14-H ) :   0.9616 B(  6-C , 17-H ) :   0.9763
B(  6-C , 18-H ) :   0.9803 B(  6-C , 19-H ) :   0.9763

E(0)                                       ...   -289.243708460
E(0)                                       ...   -289.243708460
E(CORR)(strong-pairs)                      ...     -1.108491099
E(CORR)(weak-pairs)                        ...     -0.000469647
E(CORR)(corrected)                         ...     -1.108960746
E(TOT)                                     ...   -290.352669206
E(CCSD(T))                                 ...   -290.386348728
FINAL SINGLE POINT ENERGY      -290.386348727529

DIPOLE MOMENT
-------------
                                X             Y             Z
Electronic contribution:     -0.58638      -1.22714      -2.02871
Nuclear contribution   :      0.75076       1.16787       2.30453
                        -----------------------------------------
Total Dipole Moment    :      0.16438      -0.05928       0.27581
                        -----------------------------------------
Magnitude (a.u.)       :      0.32651
Magnitude (Debye)      :      0.82992

Rotational constants in cm-1:     0.120008     0.085484     0.064615
Rotational constants in MHz :  3597.751056  2562.754275  1937.120900

                             ****ORCA TERMINATED NORMALLY****
TOTAL RUN TIME: 0 days 0 hours 2 minutes 40 seconds 337 msec
