                         Program Version 4.1.x  -  STABLE  -
|  1> ! RHF DLPNO-CCSD(T) cc-pVDZ RIJK cc-pVTZ/JK cc-pVDZ/C
|  2> ! KDIIS SOSCF TightSCF TightPNO
|  3>
|  4> %pal nprocs 4 end
|  5>
|  6> %maxcore 8000
|  7>
|  8> %scf maxiter 300
|  9>      shift shift 0.2 erroff 0.1 end
| 10> end
| 11>
| 12> * xyzfile 0 1 2_methylcyclohexanone_eq.xyz
| 13>
| 14>
| 15>                          ****END OF INPUT****

CARTESIAN COORDINATES (ANGSTROEM)
---------------------------------
  C     -0.841340   -0.501770    0.388930
  C     -0.444000    0.943750    0.081150
  C      1.007130    1.301690    0.370580
  C      1.980570    0.299790   -0.286130
  C      1.625510   -1.147160    0.082060
  C      0.168670   -1.471550   -0.276830
  O     -1.230190    1.758460   -0.373650
  C     -2.292060   -0.807430    0.015070
  H      1.184320    2.326990    0.034830
  H      1.148060    1.274830    1.461400
  H      3.008570    0.535840    0.012250
  H      1.935670    0.419920   -1.377120
  H      1.779370   -1.299010    1.160230
  H      2.300510   -1.842870   -0.430710
  H     -0.080080   -2.498590    0.016830
  H      0.039410   -1.420090   -1.367550
  H     -0.719270   -0.613620    1.479500
  H     -2.550400   -1.833000    0.299990
  H     -2.983010   -0.122700    0.513610
  H     -2.448540   -0.699390   -1.063030

 Total Charge           Charge          ....    0
 Multiplicity           Mult            ....    1
 Number of Electrons    NEL             ....   62
 Basis Dimension        Dim             ....  172

ORBITAL ENERGIES
----------------

  NO   OCC          E(Eh)            E(eV)
   0   2.0000     -20.543426      -559.0150
   1   2.0000     -11.325324      -308.1777
   2   2.0000     -11.243517      -305.9516
   3   2.0000     -11.241532      -305.8976
   4   2.0000     -11.239763      -305.8495
   5   2.0000     -11.238701      -305.8206
   6   2.0000     -11.237751      -305.7948
   7   2.0000     -11.221356      -305.3486
   8   2.0000      -1.376767       -37.4637
   9   2.0000      -1.123626       -30.5754
  10   2.0000      -1.046957       -28.4892
  11   2.0000      -0.995031       -27.0762
  12   2.0000      -0.919961       -25.0334
  13   2.0000      -0.835282       -22.7292
  14   2.0000      -0.808448       -21.9990
  15   2.0000      -0.723612       -19.6905
  16   2.0000      -0.653704       -17.7882
  17   2.0000      -0.644641       -17.5416
  18   2.0000      -0.620728       -16.8909
  19   2.0000      -0.602555       -16.3963
  20   2.0000      -0.590782       -16.0760
  21   2.0000      -0.570126       -15.5139
  22   2.0000      -0.537111       -14.6155
  23   2.0000      -0.533576       -14.5194
  24   2.0000      -0.522587       -14.2203
  25   2.0000      -0.495691       -13.4884
  26   2.0000      -0.485830       -13.2201
  27   2.0000      -0.471845       -12.8396
  28   2.0000      -0.467808       -12.7297
  29   2.0000      -0.450078       -12.2473
  30   2.0000      -0.390559       -10.6276
  31   0.0000       0.141118         3.8400
  32   0.0000       0.191268         5.2047
  33   0.0000       0.196980         5.3601
  34   0.0000       0.198144         5.3918
  35   0.0000       0.217203         5.9104

MULLIKEN ATOMIC CHARGES
-----------------------
   0 C :   -0.250138
   1 C :    0.215506
   2 C :   -0.009119
   3 C :   -0.056273
   4 C :   -0.039237
   5 C :   -0.014311
   6 O :   -0.343955
   7 C :    0.049560
   8 H :    0.050435
   9 H :    0.046813
  10 H :    0.034968
  11 H :    0.038525
  12 H :    0.026472
  13 H :    0.033162
  14 H :    0.034454
  15 H :    0.033653
  16 H :    0.039126
  17 H :    0.024790
  18 H :    0.046215
  19 H :    0.039353
Sum of atomic charges:   -0.0000000

LOEWDIN ATOMIC CHARGES
----------------------
   0 C :   -0.062081
   1 C :    0.020918
   2 C :   -0.040292
   3 C :   -0.029062
   4 C :   -0.033831
   5 C :   -0.022175
   6 O :   -0.098749
   7 C :   -0.036137
   8 H :    0.032283
   9 H :    0.031553
  10 H :    0.024386
  11 H :    0.021965
  12 H :    0.017912
  13 H :    0.024451
  14 H :    0.023629
  15 H :    0.020359
  16 H :    0.029172
  17 H :    0.020505
  18 H :    0.029174
  19 H :    0.026022

  Mayer bond orders larger than 0.1
B(  0-C ,  1-C ) :   0.9409 B(  0-C ,  5-C ) :   1.0068 B(  0-C ,  7-C ) :   1.0634
B(  0-C , 16-H ) :   0.9412 B(  1-C ,  2-C ) :   1.0161 B(  1-C ,  6-O ) :   2.0987
B(  2-C ,  3-C ) :   1.0353 B(  2-C ,  8-H ) :   0.9633 B(  2-C ,  9-H ) :   0.9507
B(  3-C ,  4-C ) :   1.0412 B(  3-C , 10-H ) :   0.9718 B(  3-C , 11-H ) :   0.9650
B(  4-C ,  5-C ) :   1.0503 B(  4-C , 12-H ) :   0.9635 B(  4-C , 13-H ) :   0.9702
B(  5-C , 14-H ) :   0.9692 B(  5-C , 15-H ) :   0.9621 B(  7-C , 17-H ) :   0.9767
B(  7-C , 18-H ) :   0.9755 B(  7-C , 19-H ) :   0.9741

E(0)                                       ...   -346.966004635
E(0)                                       ...   -346.966004635
E(CORR)(strong-pairs)                      ...     -1.236978105
E(CORR)(weak-pairs)                        ...     -0.000535582
E(CORR)(corrected)                         ...     -1.237513687
E(TOT)                                     ...   -348.203518322
E(CCSD(T))                                 ...   -348.242986940
FINAL SINGLE POINT ENERGY      -348.242986939774

DIPOLE MOMENT
-------------
                                X             Y             Z
Electronic contribution:     -1.83341       5.06861      -0.34651
Nuclear contribution   :      2.69398      -5.96253       0.76228
                        -----------------------------------------
Total Dipole Moment    :      0.86057      -0.89392       0.41578
                        -----------------------------------------
Magnitude (a.u.)       :      1.30864
Magnitude (Debye)      :      3.32630

Rotational constants in cm-1:     0.094947     0.066009     0.042671
Rotational constants in MHz :  2846.428622  1978.912101  1279.253824

                             ****ORCA TERMINATED NORMALLY****
TOTAL RUN TIME: 0 days 0 hours 3 minutes 43 seconds 94 msec
