                         Program Version 4.1.x  -  STABLE  -
|  1> ! RHF DLPNO-CCSD(T) cc-pVDZ RIJK cc-pVTZ/JK cc-pVDZ/C
|  2> ! KDIIS SOSCF TightSCF TightPNO
|  3>
|  4> %pal nprocs 4 end
|  5>
|  6> %maxcore 8000
|  7>
|  8> %scf maxiter 300
|  9>      shift shift 0.2 erroff 0.1 end
| 10> end
| 11>
| 12> * xyzfile 0 1 2_methylthiane_eq.xyz
| 13>
| 14>
| 15>                          ****END OF INPUT****

CARTESIAN COORDINATES (ANGSTROEM)
---------------------------------
  C     -0.266490    1.438260   -0.227680
  C      1.220170    1.465340    0.163840
  C      1.992150    0.211730   -0.275930
  C      1.411370   -1.076690    0.312110
  S     -0.336020   -1.361130   -0.178460
  C     -1.046690    0.257920    0.366480
  C     -2.527580    0.282480   -0.017370
  H      1.989640    0.140490   -1.371040
  H      3.041260    0.300230    0.038260
  H      1.474790   -1.064670    1.407330
  H      1.959920   -1.955640   -0.039450
  H      1.691570    2.354830   -0.271430
  H      1.303090    1.575040    1.255340
  H     -0.961590    0.288890    1.461480
  H     -0.744810    2.368960    0.110090
  H     -0.362350    1.409360   -1.321540
  H     -2.990490    1.211910    0.334160
  H     -3.070640   -0.557050    0.428130
  H     -2.651730    0.231550   -1.104670

 Total Charge           Charge          ....    0
 Multiplicity           Mult            ....    1
 Number of Electrons    NEL             ....   64
 Basis Dimension        Dim             ....  162

ORBITAL ENERGIES
----------------

  NO   OCC          E(Eh)            E(eV)
   0   2.0000     -91.928139     -2501.4918
   1   2.0000     -11.261561      -306.4426
   2   2.0000     -11.256656      -306.3092
   3   2.0000     -11.232416      -305.6496
   4   2.0000     -11.231230      -305.6173
   5   2.0000     -11.230632      -305.6010
   6   2.0000     -11.228144      -305.5333
   7   2.0000      -8.931422      -243.0364
   8   2.0000      -6.613257      -179.9559
   9   2.0000      -6.611823      -179.9168
  10   2.0000      -6.609680      -179.8585
  11   2.0000      -1.119781       -30.4708
  12   2.0000      -1.044024       -28.4093
  13   2.0000      -1.004752       -27.3407
  14   2.0000      -0.925342       -25.1798
  15   2.0000      -0.838683       -22.8217
  16   2.0000      -0.809283       -22.0217
  17   2.0000      -0.749114       -20.3844
  18   2.0000      -0.633833       -17.2475
  19   2.0000      -0.618412       -16.8278
  20   2.0000      -0.606746       -16.5104
  21   2.0000      -0.590004       -16.0548
  22   2.0000      -0.573581       -15.6079
  23   2.0000      -0.533876       -14.5275
  24   2.0000      -0.530922       -14.4471
  25   2.0000      -0.500058       -13.6073
  26   2.0000      -0.485681       -13.2160
  27   2.0000      -0.478588       -13.0230
  28   2.0000      -0.470039       -12.7904
  29   2.0000      -0.429938       -11.6992
  30   2.0000      -0.404826       -11.0159
  31   2.0000      -0.328115        -8.9285
  32   0.0000       0.177842         4.8393
  33   0.0000       0.180136         4.9018
  34   0.0000       0.200231         5.4486
  35   0.0000       0.215866         5.8740
  36   0.0000       0.220907         6.0112

MULLIKEN ATOMIC CHARGES
-----------------------
   0 C :    0.009844
   1 C :   -0.045833
   2 C :   -0.023738
   3 C :   -0.122951
   4 S :   -0.057508
   5 C :   -0.267604
   6 C :    0.025670
   7 H :    0.038234
   8 H :    0.029667
   9 H :    0.058541
  10 H :    0.064903
  11 H :    0.030064
  12 H :    0.023055
  13 H :    0.051844
  14 H :    0.027591
  15 H :    0.034932
  16 H :    0.034851
  17 H :    0.045916
  18 H :    0.042520
Sum of atomic charges:   -0.0000000

LOEWDIN ATOMIC CHARGES
----------------------
   0 C :   -0.039903
   1 C :   -0.034273
   2 C :   -0.045654
   3 C :   -0.128466
   4 S :    0.178469
   5 C :   -0.127582
   6 C :   -0.053569
   7 H :    0.021121
   8 H :    0.022824
   9 H :    0.014435
  10 H :    0.024359
  11 H :    0.023242
  12 H :    0.016617
  13 H :    0.012919
  14 H :    0.021520
  15 H :    0.019925
  16 H :    0.024088
  17 H :    0.025853
  18 H :    0.024077

  Mayer bond orders larger than 0.1
B(  0-C ,  1-C ) :   1.0546 B(  0-C ,  5-C ) :   0.9934 B(  0-C , 14-H ) :   0.9638
B(  0-C , 15-H ) :   0.9607 B(  1-C ,  2-C ) :   1.0460 B(  1-C , 11-H ) :   0.9720
B(  1-C , 12-H ) :   0.9634 B(  2-C ,  3-C ) :   1.0254 B(  2-C ,  7-H ) :   0.9636
B(  2-C ,  8-H ) :   0.9671 B(  3-C ,  4-S ) :   1.0102 B(  3-C ,  9-H ) :   0.9638
B(  3-C , 10-H ) :   0.9743 B(  4-S ,  5-C ) :   1.0024 B(  5-C ,  6-C ) :   1.0501
B(  5-C , 13-H ) :   0.9537 B(  6-C , 16-H ) :   0.9764 B(  6-C , 17-H ) :   0.9786
B(  6-C , 18-H ) :   0.9755

E(0)                                       ...   -631.750424106
E(0)                                       ...   -631.750424106
E(CORR)(strong-pairs)                      ...     -1.074729606
E(CORR)(weak-pairs)                        ...     -0.000437016
E(CORR)(corrected)                         ...     -1.075166622
E(TOT)                                     ...   -632.825590728
E(CCSD(T))                                 ...   -632.859635594
FINAL SINGLE POINT ENERGY      -632.859635594427

DIPOLE MOMENT
-------------
                                X             Y             Z
Electronic contribution:     -0.41028      -5.93231      -0.70760
Nuclear contribution   :      0.71261       6.56291       0.96405
                        -----------------------------------------
Total Dipole Moment    :      0.30232       0.63060       0.25645
                        -----------------------------------------
Magnitude (a.u.)       :      0.74486
Magnitude (Debye)      :      1.89329

Rotational constants in cm-1:     0.102013     0.066945     0.043928
Rotational constants in MHz :  3058.268281  2006.955567  1316.923376

                             ****ORCA TERMINATED NORMALLY****
TOTAL RUN TIME: 0 days 0 hours 2 minutes 50 seconds 224 msec
