                         Program Version 4.1.x  -  STABLE  -
|  1> ! RHF DLPNO-CCSD(T) cc-pVDZ RIJK cc-pVTZ/JK cc-pVDZ/C
|  2> ! KDIIS SOSCF TightSCF TightPNO
|  3>
|  4> %pal nprocs 4 end
|  5>
|  6> %maxcore 8000
|  7>
|  8> %scf maxiter 300
|  9>      shift shift 0.2 erroff 0.1 end
| 10> end
| 11>
| 12> * xyzfile 0 1 2_Me_THP_eq.xyz
| 13>
| 14>
| 15>                          ****END OF INPUT****

CARTESIAN COORDINATES (ANGSTROEM)
---------------------------------
  C      0.977590    0.018370    0.324220
  O      0.351880   -1.159900   -0.200590
  C     -1.013890   -1.290960    0.188520
  C     -1.858870   -0.111250   -0.296110
  C     -1.255330    1.211180    0.200160
  C      0.239840    1.278810   -0.149970
  C      2.437360   -0.023630   -0.103730
  H     -1.357070   -2.236290   -0.241630
  H     -1.076560   -1.373830    1.288120
  H     -2.891650   -0.228900    0.055820
  H     -1.883980   -0.120890   -1.393530
  H     -1.376120    1.278280    1.291170
  H     -1.790000    2.067310   -0.227530
  H      0.703530    2.164580    0.302300
  H      0.365020    1.364970   -1.238090
  H      0.920110   -0.026660    1.428000
  H      2.982230    0.833060    0.307200
  H      2.913810   -0.942590    0.250140
  H      2.515460    0.005090   -1.195750

 Total Charge           Charge          ....    0
 Multiplicity           Mult            ....    1
 Number of Electrons    NEL             ....   56
 Basis Dimension        Dim             ....  158

ORBITAL ENERGIES
----------------

  NO   OCC          E(Eh)            E(eV)
   0   2.0000     -20.543813      -559.0256
   1   2.0000     -11.276762      -306.8563
   2   2.0000     -11.272960      -306.7528
   3   2.0000     -11.228328      -305.5383
   4   2.0000     -11.224928      -305.4458
   5   2.0000     -11.223687      -305.4120
   6   2.0000     -11.217235      -305.2365
   7   2.0000      -1.362861       -37.0853
   8   2.0000      -1.074424       -29.2366
   9   2.0000      -1.047232       -28.4966
  10   2.0000      -0.943944       -25.6860
  11   2.0000      -0.867557       -23.6074
  12   2.0000      -0.822494       -22.3812
  13   2.0000      -0.765541       -20.8314
  14   2.0000      -0.655100       -17.8262
  15   2.0000      -0.644328       -17.5331
  16   2.0000      -0.616266       -16.7694
  17   2.0000      -0.609727       -16.5915
  18   2.0000      -0.582935       -15.8625
  19   2.0000      -0.540311       -14.7026
  20   2.0000      -0.534709       -14.5502
  21   2.0000      -0.520595       -14.1661
  22   2.0000      -0.516582       -14.0569
  23   2.0000      -0.480746       -13.0818
  24   2.0000      -0.476409       -12.9638
  25   2.0000      -0.452702       -12.3186
  26   2.0000      -0.439501       -11.9594
  27   2.0000      -0.396586       -10.7917
  28   0.0000       0.182614         4.9692
  29   0.0000       0.200195         5.4476
  30   0.0000       0.202827         5.5192
  31   0.0000       0.222981         6.0676
  32   0.0000       0.248305         6.7567

MULLIKEN ATOMIC CHARGES
-----------------------
   0 C :    0.072967
   1 O :   -0.505152
   2 C :    0.224128
   3 C :   -0.064658
   4 C :   -0.058014
   5 C :   -0.018611
   6 C :    0.028107
   7 H :    0.034364
   8 H :    0.010151
   9 H :    0.024787
  10 H :    0.034785
  11 H :    0.024396
  12 H :    0.029499
  13 H :    0.024976
  14 H :    0.030360
  15 H :    0.006726
  16 H :    0.024306
  17 H :    0.040600
  18 H :    0.036283
Sum of atomic charges:    0.0000000

LOEWDIN ATOMIC CHARGES
----------------------
   0 C :    0.003250
   1 O :   -0.090825
   2 C :    0.022150
   3 C :   -0.044018
   4 C :   -0.033981
   5 C :   -0.035731
   6 C :   -0.043154
   7 H :    0.020270
   8 H :    0.003783
   9 H :    0.021946
  10 H :    0.020740
  11 H :    0.016460
  12 H :    0.020641
  13 H :    0.021082
  14 H :    0.019540
  15 H :    0.004166
  16 H :    0.022456
  17 H :    0.026945
  18 H :    0.024279

  Mayer bond orders larger than 0.1
B(  0-C ,  1-O ) :   0.9363 B(  0-C ,  5-C ) :   1.0138 B(  0-C ,  6-C ) :   1.0770
B(  0-C , 15-H ) :   0.9524 B(  1-O ,  2-C ) :   0.9641 B(  2-C ,  3-C ) :   1.0441
B(  2-C ,  7-H ) :   0.9822 B(  2-C ,  8-H ) :   0.9638 B(  3-C ,  4-C ) :   1.0427
B(  3-C ,  9-H ) :   0.9688 B(  3-C , 10-H ) :   0.9617 B(  4-C ,  5-C ) :   1.0501
B(  4-C , 11-H ) :   0.9650 B(  4-C , 12-H ) :   0.9751 B(  5-C , 13-H ) :   0.9664
B(  5-C , 14-H ) :   0.9583 B(  6-C , 16-H ) :   0.9740 B(  6-C , 17-H ) :   0.9772
B(  6-C , 18-H ) :   0.9729

E(0)                                       ...   -309.077977597
E(0)                                       ...   -309.077977597
E(CORR)(strong-pairs)                      ...     -1.113234155
E(CORR)(weak-pairs)                        ...     -0.000464932
E(CORR)(corrected)                         ...     -1.113699086
E(TOT)                                     ...   -310.191676683
E(CCSD(T))                                 ...   -310.224595772
FINAL SINGLE POINT ENERGY      -310.224595771799

DIPOLE MOMENT
-------------
                                X             Y             Z
Electronic contribution:     -0.32992      -2.47713      -0.38719
Nuclear contribution   :      0.03184       2.90421       0.65422
                        -----------------------------------------
Total Dipole Moment    :     -0.29808       0.42708       0.26703
                        -----------------------------------------
Magnitude (a.u.)       :      0.58528
Magnitude (Debye)      :      1.48767

Rotational constants in cm-1:     0.146584     0.077033     0.055471
Rotational constants in MHz :  4394.484531  2309.397676  1662.977761

                             ****ORCA TERMINATED NORMALLY****
TOTAL RUN TIME: 0 days 0 hours 2 minutes 25 seconds 877 msec
