                         Program Version 4.1.x  -  STABLE  -
|  1> ! RHF DLPNO-CCSD(T) cc-pVDZ RIJK cc-pVTZ/JK cc-pVDZ/C
|  2> ! KDIIS SOSCF TightSCF TightPNO
|  3>
|  4> %pal nprocs 4 end
|  5>
|  6> %maxcore 8000
|  7>
|  8> %scf maxiter 300
|  9>      shift shift 0.2 erroff 0.1 end
| 10> end
| 11>
| 12> * xyzfile 0 1 2_methylpiperidine_eq.xyz
| 13>
| 14>
| 15>                          ****END OF INPUT****

CARTESIAN COORDINATES (ANGSTROEM)
---------------------------------
  C     -1.234660    1.233140    0.205300
  C      0.259090    1.275260   -0.154920
  C      0.991950    0.010900    0.320750
  N      0.309860   -1.164530   -0.238480
  C     -1.087410   -1.283400    0.189100
  C     -1.883080   -0.066780   -0.294640
  C      2.461660    0.002100   -0.098320
  H      0.823400   -2.009290   -0.000840
  H      0.945620   -0.002170    1.430150
  H     -1.180460   -1.355770    1.291450
  H     -1.500640   -2.205260   -0.234870
  H      0.375250    1.351040   -1.244660
  H      0.734340    2.159760    0.287800
  H     -2.920740   -0.139560    0.053820
  H     -1.902460   -0.072430   -1.391970
  H     -1.344870    1.294360    1.297910
  H     -1.751810    2.106450   -0.210400
  H      2.547920    0.030820   -1.189850
  H      2.988750    0.867430    0.317670
  H      2.971330   -0.900990    0.259540

 Total Charge           Charge          ....    0
 Multiplicity           Mult            ....    1
 Number of Electrons    NEL             ....   56
 Basis Dimension        Dim             ....  163

ORBITAL ENERGIES
----------------

  NO   OCC          E(Eh)            E(eV)
   0   2.0000     -15.534465      -422.7143
   1   2.0000     -11.250470      -306.1409
   2   2.0000     -11.246477      -306.0322
   3   2.0000     -11.220513      -305.3257
   4   2.0000     -11.217960      -305.2562
   5   2.0000     -11.217598      -305.2464
   6   2.0000     -11.216884      -305.2269
   7   2.0000      -1.206269       -32.8243
   8   2.0000      -1.051069       -28.6010
   9   2.0000      -1.033935       -28.1348
  10   2.0000      -0.932624       -25.3780
  11   2.0000      -0.853287       -23.2191
  12   2.0000      -0.808300       -21.9950
  13   2.0000      -0.748767       -20.3750
  14   2.0000      -0.668251       -18.1840
  15   2.0000      -0.620749       -16.8914
  16   2.0000      -0.606434       -16.5019
  17   2.0000      -0.590561       -16.0700
  18   2.0000      -0.569211       -15.4890
  19   2.0000      -0.551101       -14.9962
  20   2.0000      -0.525796       -14.3076
  21   2.0000      -0.513465       -13.9721
  22   2.0000      -0.505669       -13.7599
  23   2.0000      -0.471047       -12.8178
  24   2.0000      -0.461691       -12.5633
  25   2.0000      -0.437920       -11.9164
  26   2.0000      -0.434079       -11.8119
  27   2.0000      -0.358972        -9.7681
  28   0.0000       0.180977         4.9246
  29   0.0000       0.201180         5.4744
  30   0.0000       0.206598         5.6218
  31   0.0000       0.215805         5.8724
  32   0.0000       0.246411         6.7052

MULLIKEN ATOMIC CHARGES
-----------------------
   0 C :   -0.050691
   1 C :    0.009654
   2 C :   -0.056229
   3 N :   -0.359140
   4 C :    0.108594
   5 C :   -0.032035
   6 C :    0.028019
   7 H :    0.092920
   8 H :   -0.001852
   9 H :    0.002933
  10 H :    0.025206
  11 H :    0.027721
  12 H :    0.019661
  13 H :    0.020456
  14 H :    0.031298
  15 H :    0.020781
  16 H :    0.025411
  17 H :    0.036719
  18 H :    0.027749
  19 H :    0.022820
Sum of atomic charges:    0.0000000

LOEWDIN ATOMIC CHARGES
----------------------
   0 C :   -0.033960
   1 C :   -0.027293
   2 C :   -0.027137
   3 N :   -0.038970
   4 C :   -0.010647
   5 C :   -0.034298
   6 C :   -0.044809
   7 H :    0.032680
   8 H :   -0.002912
   9 H :   -0.003078
  10 H :    0.016874
  11 H :    0.018273
  12 H :    0.018044
  13 H :    0.018950
  14 H :    0.019416
  15 H :    0.015373
  16 H :    0.019433
  17 H :    0.023080
  18 H :    0.022470
  19 H :    0.018511

  Mayer bond orders larger than 0.1
B(  0-C ,  1-C ) :   1.0546 B(  0-C ,  5-C ) :   1.0473 B(  0-C , 15-H ) :   0.9628
B(  0-C , 16-H ) :   0.9730 B(  1-C ,  2-C ) :   1.0147 B(  1-C , 11-H ) :   0.9580
B(  1-C , 12-H ) :   0.9686 B(  2-C ,  3-N ) :   0.9944 B(  2-C ,  6-C ) :   1.0697
B(  2-C ,  8-H ) :   0.9495 B(  3-N ,  4-C ) :   1.0220 B(  3-N ,  7-H ) :   0.9682
B(  4-C ,  5-C ) :   1.0465 B(  4-C ,  9-H ) :   0.9584 B(  4-C , 10-H ) :   0.9753
B(  5-C , 13-H ) :   0.9718 B(  5-C , 14-H ) :   0.9613 B(  6-C , 17-H ) :   0.9729
B(  6-C , 18-H ) :   0.9770 B(  6-C , 19-H ) :   0.9782

E(0)                                       ...   -289.248763674
E(0)                                       ...   -289.248763674
E(CORR)(strong-pairs)                      ...     -1.107959782
E(CORR)(weak-pairs)                        ...     -0.000462865
E(CORR)(corrected)                         ...     -1.108422647
E(TOT)                                     ...   -290.357186321
E(CCSD(T))                                 ...   -290.390796860
FINAL SINGLE POINT ENERGY      -290.390796860096

DIPOLE MOMENT
-------------
                                X             Y             Z
Electronic contribution:     -0.81804      -1.26340      -0.38229
Nuclear contribution   :      0.83506       1.18511       0.70451
                        -----------------------------------------
Total Dipole Moment    :      0.01702      -0.07829       0.32221
                        -----------------------------------------
Magnitude (a.u.)       :      0.33202
Magnitude (Debye)      :      0.84394

Rotational constants in cm-1:     0.144210     0.075074     0.054176
Rotational constants in MHz :  4323.299965  2250.658908  1624.147002

                             ****ORCA TERMINATED NORMALLY****
TOTAL RUN TIME: 0 days 0 hours 2 minutes 59 seconds 559 msec
