                         Program Version 4.1.x  -  STABLE  -
|  1> ! RHF DLPNO-CCSD(T) cc-pVDZ RIJK cc-pVTZ/JK cc-pVDZ/C
|  2> ! KDIIS SOSCF TightSCF TightPNO
|  3>
|  4> %pal nprocs 4 end
|  5>
|  6> %maxcore 8000
|  7>
|  8> %scf maxiter 300
|  9>      shift shift 0.2 erroff 0.1 end
| 10> end
| 11>
| 12> * xyzfile 0 1 2_methyl_1_3_butadiene_cis.xyz
| 13>
| 14>
| 15>                          ****END OF INPUT****

CARTESIAN COORDINATES (ANGSTROEM)
---------------------------------
  C     -0.543860    1.444310    0.000000
  C     -0.449580    0.102590   -0.000010
  C     -1.707390   -0.754670    0.000000
  C      0.841850   -0.622810   -0.000000
  C      2.079570   -0.103730    0.000000
  H     -1.510500    1.940040   -0.000030
  H      0.329670    2.088610    0.000040
  H      0.755470   -1.708840    0.000000
  H      2.951380   -0.750100   -0.000000
  H      2.268490    0.966190    0.000000
  H     -1.470450   -1.822360   -0.000810
  H     -2.323370   -0.554410    0.883330
  H     -2.324190   -0.553250   -0.882480

 Total Charge           Charge          ....    0
 Multiplicity           Mult            ....    1
 Number of Electrons    NEL             ....   38
 Basis Dimension        Dim             ....  110

ORBITAL ENERGIES
----------------

  NO   OCC          E(Eh)            E(eV)
   0   2.0000     -11.246753      -306.0397
   1   2.0000     -11.240891      -305.8802
   2   2.0000     -11.234166      -305.6972
   3   2.0000     -11.229336      -305.5658
   4   2.0000     -11.223800      -305.4151
   5   2.0000      -1.099730       -29.9252
   6   2.0000      -1.005777       -27.3686
   7   2.0000      -0.930243       -25.3132
   8   2.0000      -0.824360       -22.4320
   9   2.0000      -0.707365       -19.2484
  10   2.0000      -0.645927       -17.5766
  11   2.0000      -0.620222       -16.8771
  12   2.0000      -0.569030       -15.4841
  13   2.0000      -0.568458       -15.4685
  14   2.0000      -0.529343       -14.4042
  15   2.0000      -0.504886       -13.7387
  16   2.0000      -0.484022       -13.1709
  17   2.0000      -0.421408       -11.4671
  18   2.0000      -0.311846        -8.4858
  19   0.0000       0.107556         2.9267
  20   0.0000       0.190375         5.1804
  21   0.0000       0.212382         5.7792
  22   0.0000       0.217340         5.9141
  23   0.0000       0.243968         6.6387

MULLIKEN ATOMIC CHARGES
-----------------------
   0 C :    0.013378
   1 C :   -0.320440
   2 C :    0.049937
   3 C :   -0.052874
   4 C :   -0.010104
   5 H :    0.033933
   6 H :    0.038845
   7 H :    0.020493
   8 H :    0.050547
   9 H :    0.043670
  10 H :    0.027446
  11 H :    0.052596
  12 H :    0.052573
Sum of atomic charges:    0.0000000

LOEWDIN ATOMIC CHARGES
----------------------
   0 C :   -0.050711
   1 C :   -0.043224
   2 C :   -0.038319
   3 C :   -0.033444
   4 C :   -0.033258
   5 H :    0.020107
   6 H :    0.018516
   7 H :    0.025740
   8 H :    0.025924
   9 H :    0.020552
  10 H :    0.023231
  11 H :    0.032447
  12 H :    0.032440

  Mayer bond orders larger than 0.1
B(  0-C ,  1-C ) :   1.9907 B(  0-C ,  5-H ) :   0.9584 B(  0-C ,  6-H ) :   0.9561
B(  1-C ,  2-C ) :   1.0472 B(  1-C ,  3-C ) :   1.0483 B(  2-C , 10-H ) :   0.9773
B(  2-C , 11-H ) :   0.9712 B(  2-C , 12-H ) :   0.9713 B(  3-C ,  4-C ) :   1.9925
B(  3-C ,  7-H ) :   0.9656 B(  4-C ,  8-H ) :   0.9623 B(  4-C ,  9-H ) :   0.9627

E(0)                                       ...   -193.964040231
E(0)                                       ...   -193.964040231
E(CORR)(strong-pairs)                      ...     -0.739920091
E(CORR)(weak-pairs)                        ...     -0.000189532
E(CORR)(corrected)                         ...     -0.740109623
E(TOT)                                     ...   -194.704149854
E(CCSD(T))                                 ...   -194.729900659
FINAL SINGLE POINT ENERGY      -194.729900659116

DIPOLE MOMENT
-------------
                                X             Y             Z
Electronic contribution:      1.31139       0.30629      -0.00003
Nuclear contribution   :     -1.38661      -0.41292       0.00005
                        -----------------------------------------
Total Dipole Moment    :     -0.07522      -0.10663       0.00003
                        -----------------------------------------
Magnitude (a.u.)       :      0.13049
Magnitude (Debye)      :      0.33167

Rotational constants in cm-1:     0.306773     0.126701     0.091192
Rotational constants in MHz :  9196.815814  3798.392905  2733.858566

                             ****ORCA TERMINATED NORMALLY****
TOTAL RUN TIME: 0 days 0 hours 1 minutes 51 seconds 628 msec
