                         Program Version 4.1.x  -  STABLE  -
|  1> ! RHF DLPNO-CCSD(T) cc-pVDZ RIJK cc-pVTZ/JK cc-pVDZ/C
|  2> ! KDIIS SOSCF TightSCF TightPNO
|  3>
|  4> %pal nprocs 4 end
|  5>
|  6> %maxcore 8000
|  7>
|  8> %scf maxiter 300
|  9>      shift shift 0.2 erroff 0.1 end
| 10> end
| 11>
| 12> * xyzfile 0 1 2_propanol_a.xyz
| 13>
| 14>
| 15>                          ****END OF INPUT****

CARTESIAN COORDINATES (ANGSTROEM)
---------------------------------
  C      1.272970   -0.669460    0.099250
  C     -0.000080    0.036910   -0.370450
  O      0.000800    1.418210    0.022060
  C     -1.273980   -0.667780    0.099510
  H      2.159480   -0.129790   -0.246620
  H      1.307960   -0.721850    1.195520
  H      1.318510   -1.695180   -0.283890
  H     -0.000150    0.080360   -1.465660
  H     -2.159740   -0.126590   -0.245890
  H     -1.321230   -1.693300   -0.283980
  H     -1.308700   -0.720370    1.195780
  H      0.004040    1.463020    0.988420

 Total Charge           Charge          ....    0
 Multiplicity           Mult            ....    1
 Number of Electrons    NEL             ....   34
 Basis Dimension        Dim             ....   96

ORBITAL ENERGIES
----------------

  NO   OCC          E(Eh)            E(eV)
   0   2.0000     -20.546701      -559.1042
   1   2.0000     -11.281150      -306.9757
   2   2.0000     -11.223740      -305.4135
   3   2.0000     -11.223671      -305.4116
   4   2.0000      -1.346929       -36.6518
   5   2.0000      -1.038976       -28.2720
   6   2.0000      -0.938117       -25.5275
   7   2.0000      -0.810205       -22.0468
   8   2.0000      -0.655124       -17.8268
   9   2.0000      -0.633114       -17.2279
  10   2.0000      -0.595102       -16.1935
  11   2.0000      -0.572415       -15.5762
  12   2.0000      -0.541121       -14.7246
  13   2.0000      -0.509572       -13.8662
  14   2.0000      -0.506828       -13.7915
  15   2.0000      -0.465077       -12.6554
  16   2.0000      -0.431877       -11.7520
  17   0.0000       0.174446         4.7469
  18   0.0000       0.211820         5.7639
  19   0.0000       0.233645         6.3578
  20   0.0000       0.243351         6.6219
  21   0.0000       0.246700         6.7130

MULLIKEN ATOMIC CHARGES
-----------------------
   0 C :   -0.026611
   1 C :    0.077396
   2 O :   -0.394976
   3 C :   -0.026395
   4 H :    0.043341
   5 H :    0.017747
   6 H :    0.028846
   7 H :    0.031262
   8 H :    0.043334
   9 H :    0.028765
  10 H :    0.017739
  11 H :    0.159551
Sum of atomic charges:   -0.0000000

LOEWDIN ATOMIC CHARGES
----------------------
   0 C :   -0.057571
   1 C :   -0.000393
   2 O :   -0.081707
   3 C :   -0.057546
   4 H :    0.026405
   5 H :    0.016495
   6 H :    0.024158
   7 H :    0.021336
   8 H :    0.026413
   9 H :    0.024113
  10 H :    0.016498
  11 H :    0.041801

  Mayer bond orders larger than 0.1
B(  0-C ,  1-C ) :   1.0452 B(  0-C ,  4-H ) :   0.9807 B(  0-C ,  5-H ) :   0.9749
B(  0-C ,  6-H ) :   0.9751 B(  1-C ,  2-O ) :   0.9524 B(  1-C ,  3-C ) :   1.0451
B(  1-C ,  7-H ) :   0.9637 B(  2-O , 11-H ) :   1.0020 B(  3-C ,  8-H ) :   0.9807
B(  3-C ,  9-H ) :   0.9751 B(  3-C , 10-H ) :   0.9749

E(0)                                       ...   -193.133878245
E(0)                                       ...   -193.133878245
E(CORR)(strong-pairs)                      ...     -0.676457203
E(CORR)(weak-pairs)                        ...     -0.000169652
E(CORR)(corrected)                         ...     -0.676626854
E(TOT)                                     ...   -193.810505100
E(CCSD(T))                                 ...   -193.827736591
FINAL SINGLE POINT ENERGY      -193.827736590617

DIPOLE MOMENT
-------------
                                X             Y             Z
Electronic contribution:      0.00155       3.18545      -0.53134
Nuclear contribution   :      0.00019      -3.74157       0.90743
                        -----------------------------------------
Total Dipole Moment    :      0.00174      -0.55612       0.37609
                        -----------------------------------------
Magnitude (a.u.)       :      0.67136
Magnitude (Debye)      :      1.70645

Rotational constants in cm-1:     0.281141     0.265419     0.157411
Rotational constants in MHz :  8428.409077  7957.051928  4719.050292

                             ****ORCA TERMINATED NORMALLY****
TOTAL RUN TIME: 0 days 0 hours 0 minutes 27 seconds 290 msec
