                         Program Version 4.1.x  -  STABLE  -
|  1> ! RHF DLPNO-CCSD(T) cc-pVDZ RIJK cc-pVTZ/JK cc-pVDZ/C
|  2> ! KDIIS SOSCF TightSCF TightPNO
|  3>
|  4> %pal nprocs 4 end
|  5>
|  6> %maxcore 8000
|  7>
|  8> %scf maxiter 300
|  9>      shift shift 0.2 erroff 0.1 end
| 10> end
| 11>
| 12> * xyzfile 0 1 2_propylamine_a.xyz
| 13>
| 14>
| 15>                          ****END OF INPUT****

CARTESIAN COORDINATES (ANGSTROEM)
---------------------------------
  C     -1.266910   -0.700640   -0.096220
  C     -0.000000    0.026180    0.362630
  N      0.000100    1.385530   -0.201740
  C      1.266800   -0.700820   -0.096210
  H     -2.168750   -0.172720    0.236670
  H     -1.295110   -0.762300   -1.189600
  H     -1.304870   -1.715290    0.314690
  H     -0.000010    0.039670    1.468180
  H      2.168720   -0.173100    0.236750
  H      1.304570   -1.715510    0.314650
  H      1.295020   -0.762420   -1.189590
  H     -0.819150    1.907430    0.099720
  H      0.819570    1.907210    0.099500

 Total Charge           Charge          ....    0
 Multiplicity           Mult            ....    1
 Number of Electrons    NEL             ....   34
 Basis Dimension        Dim             ....  101

ORBITAL ENERGIES
----------------

  NO   OCC          E(Eh)            E(eV)
   0   2.0000     -15.533745      -422.6947
   1   2.0000     -11.253932      -306.2351
   2   2.0000     -11.215978      -305.2023
   3   2.0000     -11.215960      -305.2018
   4   2.0000      -1.173947       -31.9447
   5   2.0000      -1.007919       -27.4269
   6   2.0000      -0.928292       -25.2601
   7   2.0000      -0.776382       -21.1264
   8   2.0000      -0.644405       -17.5352
   9   2.0000      -0.643308       -17.5053
  10   2.0000      -0.592601       -16.1255
  11   2.0000      -0.534101       -14.5336
  12   2.0000      -0.523581       -14.2474
  13   2.0000      -0.501779       -13.6541
  14   2.0000      -0.485373       -13.2077
  15   2.0000      -0.469936       -12.7876
  16   2.0000      -0.380071       -10.3423
  17   0.0000       0.176435         4.8010
  18   0.0000       0.226019         6.1503
  19   0.0000       0.228318         6.2128
  20   0.0000       0.241006         6.5581
  21   0.0000       0.255377         6.9492

MULLIKEN ATOMIC CHARGES
-----------------------
   0 C :    0.000604
   1 C :   -0.083752
   2 N :   -0.269410
   3 C :    0.000595
   4 H :    0.021853
   5 H :    0.036988
   6 H :    0.025398
   7 H :    0.003070
   8 H :    0.021854
   9 H :    0.025402
  10 H :    0.036991
  11 H :    0.090204
  12 H :    0.090203
Sum of atomic charges:    0.0000000

LOEWDIN ATOMIC CHARGES
----------------------
   0 C :   -0.047166
   1 C :   -0.033808
   2 N :   -0.062458
   3 C :   -0.047168
   4 H :    0.018067
   5 H :    0.022856
   6 H :    0.020683
   7 H :   -0.000037
   8 H :    0.018065
   9 H :    0.020688
  10 H :    0.022856
  11 H :    0.033712
  12 H :    0.033711

  Mayer bond orders larger than 0.1
B(  0-C ,  1-C ) :   1.0424 B(  0-C ,  4-H ) :   0.9814 B(  0-C ,  5-H ) :   0.9763
B(  0-C ,  6-H ) :   0.9804 B(  1-C ,  2-N ) :   1.0245 B(  1-C ,  3-C ) :   1.0424
B(  1-C ,  7-H ) :   0.9630 B(  2-N , 11-H ) :   0.9850 B(  2-N , 12-H ) :   0.9850
B(  3-C ,  8-H ) :   0.9814 B(  3-C ,  9-H ) :   0.9804 B(  3-C , 10-H ) :   0.9763

E(0)                                       ...   -173.302412718
E(0)                                       ...   -173.302412718
E(CORR)(strong-pairs)                      ...     -0.669424028
E(CORR)(weak-pairs)                        ...     -0.000170817
E(CORR)(corrected)                         ...     -0.669594845
E(TOT)                                     ...   -173.972007563
E(CCSD(T))                                 ...   -173.989917919
FINAL SINGLE POINT ENERGY      -173.989917918824

DIPOLE MOMENT
-------------
                                X             Y             Z
Electronic contribution:      0.00011       1.64727       0.06310
Nuclear contribution   :     -0.00002      -1.55434       0.42106
                        -----------------------------------------
Total Dipole Moment    :      0.00009       0.09293       0.48416
                        -----------------------------------------
Magnitude (a.u.)       :      0.49300
Magnitude (Debye)      :      1.25311

Rotational constants in cm-1:     0.276874     0.263795     0.154113
Rotational constants in MHz :  8300.483125  7908.376326  4620.181069

                             ****ORCA TERMINATED NORMALLY****
TOTAL RUN TIME: 0 days 0 hours 0 minutes 33 seconds 626 msec
