                         Program Version 4.1.x  -  STABLE  -
|  1> ! RHF DLPNO-CCSD(T) cc-pVDZ RIJK cc-pVTZ/JK cc-pVDZ/C
|  2> ! KDIIS SOSCF TightSCF TightPNO
|  3>
|  4> %pal nprocs 4 end
|  5>
|  6> %maxcore 8000
|  7>
|  8> %scf maxiter 300
|  9>      shift shift 0.2 erroff 0.1 end
| 10> end
| 11>
| 12> * xyzfile 0 1 2_propanethiol_a.xyz
| 13>
| 14>
| 15>                          ****END OF INPUT****

CARTESIAN COORDINATES (ANGSTROEM)
---------------------------------
  C     -1.099860   -1.273050    0.112230
  C     -0.413500    0.000000   -0.390360
  C     -1.099830    1.273070    0.112230
  S      1.406010   -0.000010   -0.018810
  H      1.287180   -0.000050    1.326340
  H     -2.151670   -1.284680   -0.200050
  H     -0.612540   -2.170010   -0.278630
  H     -0.421620   -0.000010   -1.486860
  H     -0.612500    2.170010   -0.278630
  H     -1.077050    1.323760    1.207140
  H     -2.151650    1.284710   -0.200040
  H     -1.077090   -1.323740    1.207140

 Total Charge           Charge          ....    0
 Multiplicity           Mult            ....    1
 Number of Electrons    NEL             ....   42
 Basis Dimension        Dim             ....  100

ORBITAL ENERGIES
----------------

  NO   OCC          E(Eh)            E(eV)
   0   2.0000     -91.941967     -2501.8681
   1   2.0000     -11.273619      -306.7708
   2   2.0000     -11.232280      -305.6459
   3   2.0000     -11.232260      -305.6453
   4   2.0000      -8.944607      -243.3951
   5   2.0000      -6.626627      -180.3197
   6   2.0000      -6.625125      -180.2788
   7   2.0000      -6.622915      -180.2187
   8   2.0000      -1.090850       -29.6835
   9   2.0000      -0.941039       -25.6070
  10   2.0000      -0.938124       -25.5276
  11   2.0000      -0.785119       -21.3642
  12   2.0000      -0.629023       -17.1166
  13   2.0000      -0.600432       -16.3386
  14   2.0000      -0.572589       -15.5809
  15   2.0000      -0.544007       -14.8032
  16   2.0000      -0.527789       -14.3619
  17   2.0000      -0.496007       -13.4970
  18   2.0000      -0.479951       -13.0601
  19   2.0000      -0.430691       -11.7197
  20   2.0000      -0.350707        -9.5432
  21   0.0000       0.159001         4.3266
  22   0.0000       0.194188         5.2841
  23   0.0000       0.208651         5.6777
  24   0.0000       0.227680         6.1955
  25   0.0000       0.232068         6.3149

MULLIKEN ATOMIC CHARGES
-----------------------
   0 C :    0.015865
   1 C :   -0.287105
   2 C :    0.015869
   3 S :   -0.098960
   4 H :    0.064795
   5 H :    0.033726
   6 H :    0.047305
   7 H :    0.066452
   8 H :    0.047304
   9 H :    0.030512
  10 H :    0.033725
  11 H :    0.030512
Sum of atomic charges:   -0.0000000

LOEWDIN ATOMIC CHARGES
----------------------
   0 C :   -0.055836
   1 C :   -0.129076
   2 C :   -0.055836
   3 S :    0.106064
   4 H :   -0.029088
   5 H :    0.023248
   6 H :    0.026129
   7 H :    0.023799
   8 H :    0.026127
   9 H :    0.020610
  10 H :    0.023249
  11 H :    0.020610

  Mayer bond orders larger than 0.1
B(  0-C ,  1-C ) :   1.0224 B(  0-C ,  5-H ) :   0.9756 B(  0-C ,  6-H ) :   0.9818
B(  0-C , 11-H ) :   0.9791 B(  1-C ,  2-C ) :   1.0224 B(  1-C ,  3-S ) :   1.0112
B(  1-C ,  7-H ) :   0.9593 B(  2-C ,  8-H ) :   0.9818 B(  2-C ,  9-H ) :   0.9791
B(  2-C , 10-H ) :   0.9756 B(  3-S ,  4-H ) :   0.9737

E(0)                                       ...   -515.802444951
E(0)                                       ...   -515.802444951
E(CORR)(strong-pairs)                      ...     -0.635672714
E(CORR)(weak-pairs)                        ...     -0.000153644
E(CORR)(corrected)                         ...     -0.635826358
E(TOT)                                     ...   -516.438271309
E(CCSD(T))                                 ...   -516.456340032
FINAL SINGLE POINT ENERGY      -516.456340032322

DIPOLE MOMENT
-------------
                                X             Y             Z
Electronic contribution:      6.41750      -0.00000      -1.16389
Nuclear contribution   :     -7.10555      -0.00000       1.34334
                        -----------------------------------------
Total Dipole Moment    :     -0.68805      -0.00000       0.17945
                        -----------------------------------------
Magnitude (a.u.)       :      0.71106
Magnitude (Debye)      :      1.80738

Rotational constants in cm-1:     0.261046     0.143522     0.103137
Rotational constants in MHz :  7825.950785  4302.692257  3091.959401

                             ****ORCA TERMINATED NORMALLY****
TOTAL RUN TIME: 0 days 0 hours 0 minutes 38 seconds 707 msec
