                         Program Version 4.1.x  -  STABLE  -
|  1> ! RHF DLPNO-CCSD(T) cc-pVDZ RIJK cc-pVTZ/JK cc-pVDZ/C
|  2> ! KDIIS SOSCF TightSCF TightPNO
|  3>
|  4> %pal nprocs 4 end
|  5>
|  6> %maxcore 8000
|  7>
|  8> %scf maxiter 300
|  9>      shift shift 0.2 erroff 0.1 end
| 10> end
| 11>
| 12> * xyzfile 0 1 2_propylamine_g.xyz
| 13>
| 14>
| 15>                          ****END OF INPUT****

CARTESIAN COORDINATES (ANGSTROEM)
---------------------------------
  C      1.362920   -0.497720    0.082740
  C     -0.002810    0.027050   -0.369520
  N     -0.135710    1.430530    0.053590
  C     -1.145120   -0.884880    0.111710
  H      2.165310    0.139020   -0.300590
  H      1.430810   -0.507150    1.178800
  H      1.527930   -1.521980   -0.267940
  H     -0.015440    0.038720   -1.468180
  H     -2.118190   -0.505040   -0.221120
  H     -1.033650   -1.905570   -0.274190
  H     -1.162060   -0.938860    1.207970
  H     -1.025550    1.819610   -0.248950
  H     -0.109190    1.500840    1.069470

 Total Charge           Charge          ....    0
 Multiplicity           Mult            ....    1
 Number of Electrons    NEL             ....   34
 Basis Dimension        Dim             ....  101

ORBITAL ENERGIES
----------------

  NO   OCC          E(Eh)            E(eV)
   0   2.0000     -15.534479      -422.7147
   1   2.0000     -11.254434      -306.2487
   2   2.0000     -11.218728      -305.2771
   3   2.0000     -11.216092      -305.2054
   4   2.0000      -1.174516       -31.9602
   5   2.0000      -1.007634       -27.4191
   6   2.0000      -0.928691       -25.2710
   7   2.0000      -0.785799       -21.3827
   8   2.0000      -0.659591       -17.9484
   9   2.0000      -0.604576       -16.4514
  10   2.0000      -0.590826       -16.0772
  11   2.0000      -0.556146       -15.1335
  12   2.0000      -0.532084       -14.4787
  13   2.0000      -0.506780       -13.7902
  14   2.0000      -0.481420       -13.1001
  15   2.0000      -0.467737       -12.7278
  16   2.0000      -0.380286       -10.3481
  17   0.0000       0.176177         4.7940
  18   0.0000       0.217372         5.9150
  19   0.0000       0.226298         6.1579
  20   0.0000       0.240723         6.5504
  21   0.0000       0.251806         6.8520

MULLIKEN ATOMIC CHARGES
-----------------------
   0 C :    0.000831
   1 C :   -0.070187
   2 N :   -0.277753
   3 C :   -0.009102
   4 H :    0.041203
   5 H :    0.018838
   6 H :    0.026000
   7 H :    0.025249
   8 H :    0.021596
   9 H :    0.025485
  10 H :    0.019393
  11 H :    0.090010
  12 H :    0.088436
Sum of atomic charges:    0.0000000

LOEWDIN ATOMIC CHARGES
----------------------
   0 C :   -0.046630
   1 C :   -0.034417
   2 N :   -0.057340
   3 C :   -0.060438
   4 H :    0.025235
   5 H :    0.016609
   6 H :    0.020725
   7 H :    0.017461
   8 H :    0.016757
   9 H :    0.020845
  10 H :    0.015885
  11 H :    0.033437
  12 H :    0.031871

  Mayer bond orders larger than 0.1
B(  0-C ,  1-C ) :   1.0443 B(  0-C ,  4-H ) :   0.9808 B(  0-C ,  5-H ) :   0.9765
B(  0-C ,  6-H ) :   0.9813 B(  1-C ,  2-N ) :   1.0261 B(  1-C ,  3-C ) :   1.0381
B(  1-C ,  7-H ) :   0.9616 B(  2-N , 11-H ) :   0.9884 B(  2-N , 12-H ) :   0.9863
B(  3-C ,  8-H ) :   0.9815 B(  3-C ,  9-H ) :   0.9754 B(  3-C , 10-H ) :   0.9764

E(0)                                       ...   -173.302157339
E(0)                                       ...   -173.302157339
E(CORR)(strong-pairs)                      ...     -0.669659556
E(CORR)(weak-pairs)                        ...     -0.000173187
E(CORR)(corrected)                         ...     -0.669832743
E(TOT)                                     ...   -173.971990082
E(CCSD(T))                                 ...   -173.989986734
FINAL SINGLE POINT ENERGY      -173.989986733594

DIPOLE MOMENT
-------------
                                X             Y             Z
Electronic contribution:     -0.01025       1.79925      -0.55662
Nuclear contribution   :     -0.36815      -2.02220       0.72979
                        -----------------------------------------
Total Dipole Moment    :     -0.37840      -0.22295       0.17317
                        -----------------------------------------
Magnitude (a.u.)       :      0.47211
Magnitude (Debye)      :      1.20000

Rotational constants in cm-1:     0.270858     0.262653     0.153923
Rotational constants in MHz :  8120.120467  7874.142121  4614.500841

                             ****ORCA TERMINATED NORMALLY****
TOTAL RUN TIME: 0 days 0 hours 0 minutes 43 seconds 787 msec
