                         Program Version 4.1.x  -  STABLE  -
|  1> ! RHF DLPNO-CCSD(T) cc-pVDZ RIJK cc-pVTZ/JK cc-pVDZ/C
|  2> ! KDIIS SOSCF TightSCF TightPNO
|  3>
|  4> %pal nprocs 4 end
|  5>
|  6> %maxcore 8000
|  7>
|  8> %scf maxiter 300
|  9>      shift shift 0.2 erroff 0.1 end
| 10> end
| 11>
| 12> * xyzfile 0 1 2_propanol_g.xyz
| 13>
| 14>
| 15>                          ****END OF INPUT****

CARTESIAN COORDINATES (ANGSTROEM)
---------------------------------
  C     -1.328800   -0.557240   -0.089740
  C     -0.001900    0.037970    0.364300
  O      0.041590    1.374420   -0.163150
  C      1.203480   -0.779460   -0.103250
  H     -2.161650    0.066140    0.248370
  H     -1.364880   -0.614790   -1.183030
  H     -1.459400   -1.565070    0.317990
  H      0.005930    0.088330    1.465280
  H      2.144610   -0.322390    0.226620
  H      1.168590   -1.795380    0.306300
  H      1.219260   -0.844480   -1.196630
  H      0.878110    1.784710    0.092420

 Total Charge           Charge          ....    0
 Multiplicity           Mult            ....    1
 Number of Electrons    NEL             ....   34
 Basis Dimension        Dim             ....   96

ORBITAL ENERGIES
----------------

  NO   OCC          E(Eh)            E(eV)
   0   2.0000     -20.545983      -559.0846
   1   2.0000     -11.281195      -306.9769
   2   2.0000     -11.224556      -305.4357
   3   2.0000     -11.217663      -305.2481
   4   2.0000      -1.346145       -36.6305
   5   2.0000      -1.039067       -28.2744
   6   2.0000      -0.937039       -25.4981
   7   2.0000      -0.795362       -21.6429
   8   2.0000      -0.686350       -18.6765
   9   2.0000      -0.621776       -16.9194
  10   2.0000      -0.598941       -16.2980
  11   2.0000      -0.542829       -14.7711
  12   2.0000      -0.530269       -14.4294
  13   2.0000      -0.521683       -14.1957
  14   2.0000      -0.506016       -13.7694
  15   2.0000      -0.467882       -12.7317
  16   2.0000      -0.430389       -11.7115
  17   0.0000       0.174061         4.7364
  18   0.0000       0.219069         5.9612
  19   0.0000       0.230453         6.2710
  20   0.0000       0.244836         6.6623
  21   0.0000       0.247580         6.7370

MULLIKEN ATOMIC CHARGES
-----------------------
   0 C :   -0.010127
   1 C :    0.062345
   2 O :   -0.389025
   3 C :   -0.028396
   4 H :    0.042038
   5 H :    0.036826
   6 H :    0.024411
   7 H :    0.010720
   8 H :    0.020915
   9 H :    0.029451
  10 H :    0.039343
  11 H :    0.161500
Sum of atomic charges:    0.0000000

LOEWDIN ATOMIC CHARGES
----------------------
   0 C :   -0.046049
   1 C :    0.000058
   2 O :   -0.085165
   3 C :   -0.058076
   4 H :    0.027131
   5 H :    0.024193
   6 H :    0.021721
   7 H :    0.006424
   8 H :    0.017882
   9 H :    0.024519
  10 H :    0.024197
  11 H :    0.043164

  Mayer bond orders larger than 0.1
B(  0-C ,  1-C ) :   1.0496 B(  0-C ,  4-H ) :   0.9801 B(  0-C ,  5-H ) :   0.9765
B(  0-C ,  6-H ) :   0.9782 B(  1-C ,  2-O ) :   0.9733 B(  1-C ,  3-C ) :   1.0455
B(  1-C ,  7-H ) :   0.9631 B(  2-O , 11-H ) :   1.0013 B(  3-C ,  8-H ) :   0.9796
B(  3-C ,  9-H ) :   0.9748 B(  3-C , 10-H ) :   0.9759

E(0)                                       ...   -193.133973465
E(0)                                       ...   -193.133973465
E(CORR)(strong-pairs)                      ...     -0.676147460
E(CORR)(weak-pairs)                        ...     -0.000171810
E(CORR)(corrected)                         ...     -0.676319270
E(TOT)                                     ...   -193.810292736
E(CCSD(T))                                 ...   -193.827437467
FINAL SINGLE POINT ENERGY      -193.827437467358

DIPOLE MOMENT
-------------
                                X             Y             Z
Electronic contribution:      0.01391       3.07022       0.05889
Nuclear contribution   :      0.45820      -3.38024       0.29194
                        -----------------------------------------
Total Dipole Moment    :      0.47211      -0.31002       0.35083
                        -----------------------------------------
Magnitude (a.u.)       :      0.66489
Magnitude (Debye)      :      1.69002

Rotational constants in cm-1:     0.287096     0.266215     0.157670
Rotational constants in MHz :  8606.922651  7980.927157  4726.820759

                             ****ORCA TERMINATED NORMALLY****
TOTAL RUN TIME: 0 days 0 hours 0 minutes 40 seconds 36 msec
