                         Program Version 4.1.x  -  STABLE  -
|  1> ! RHF DLPNO-CCSD(T) cc-pVDZ RIJK cc-pVTZ/JK cc-pVDZ/C
|  2> ! KDIIS SOSCF TightSCF TightPNO
|  3>
|  4> %pal nprocs 4 end
|  5>
|  6> %maxcore 8000
|  7>
|  8> %scf maxiter 300
|  9>      shift shift 0.2 erroff 0.1 end
| 10> end
| 11>
| 12> * xyzfile 0 1 2_propanethiol_g.xyz
| 13>
| 14>
| 15>                          ****END OF INPUT****

CARTESIAN COORDINATES (ANGSTROEM)
---------------------------------
  C     -1.092740    1.275780   -0.142000
  C     -0.417740    0.015930    0.402310
  C     -1.095460   -1.265480   -0.091460
  S      1.373370   -0.082740   -0.089900
  H      1.745340    1.113040    0.411560
  H     -2.145330    1.300620    0.168000
  H     -0.613340    2.186140    0.232260
  H     -0.443270    0.030180    1.497110
  H     -0.619690   -2.159090    0.323930
  H     -1.059300   -1.332850   -1.184490
  H     -2.148030   -1.268690    0.213100
  H     -1.054700    1.297220   -1.236060

 Total Charge           Charge          ....    0
 Multiplicity           Mult            ....    1
 Number of Electrons    NEL             ....   42
 Basis Dimension        Dim             ....  100

ORBITAL ENERGIES
----------------

  NO   OCC          E(Eh)            E(eV)
   0   2.0000     -91.941242     -2501.8484
   1   2.0000     -11.272748      -306.7471
   2   2.0000     -11.233327      -305.6744
   3   2.0000     -11.232682      -305.6568
   4   2.0000      -8.943896      -243.3758
   5   2.0000      -6.625927      -180.3006
   6   2.0000      -6.624425      -180.2598
   7   2.0000      -6.622177      -180.1986
   8   2.0000      -1.091238       -29.6941
   9   2.0000      -0.942288       -25.6410
  10   2.0000      -0.937551       -25.5121
  11   2.0000      -0.779973       -21.2241
  12   2.0000      -0.636269       -17.3138
  13   2.0000      -0.603351       -16.4180
  14   2.0000      -0.577234       -15.7073
  15   2.0000      -0.545815       -14.8524
  16   2.0000      -0.509704       -13.8697
  17   2.0000      -0.497942       -13.5497
  18   2.0000      -0.484587       -13.1863
  19   2.0000      -0.430619       -11.7177
  20   2.0000      -0.350125        -9.5274
  21   0.0000       0.154711         4.2099
  22   0.0000       0.206611         5.6222
  23   0.0000       0.209005         5.6873
  24   0.0000       0.227508         6.1908
  25   0.0000       0.229390         6.2420

MULLIKEN ATOMIC CHARGES
-----------------------
   0 C :    0.012705
   1 C :   -0.280200
   2 C :   -0.006150
   3 S :   -0.098335
   4 H :    0.067370
   5 H :    0.033462
   6 H :    0.033409
   7 H :    0.061229
   8 H :    0.048669
   9 H :    0.044946
  10 H :    0.038887
  11 H :    0.044008
Sum of atomic charges:    0.0000000

LOEWDIN ATOMIC CHARGES
----------------------
   0 C :   -0.056483
   1 C :   -0.124177
   2 C :   -0.055523
   3 S :    0.098999
   4 H :   -0.027492
   5 H :    0.023532
   6 H :    0.021490
   7 H :    0.017981
   8 H :    0.026424
   9 H :    0.024652
  10 H :    0.025653
  11 H :    0.024945

  Mayer bond orders larger than 0.1
B(  0-C ,  1-C ) :   1.0213 B(  0-C ,  5-H ) :   0.9748 B(  0-C ,  6-H ) :   0.9824
B(  0-C , 11-H ) :   0.9785 B(  1-C ,  2-C ) :   1.0289 B(  1-C ,  3-S ) :   1.0163
B(  1-C ,  7-H ) :   0.9617 B(  2-C ,  8-H ) :   0.9809 B(  2-C ,  9-H ) :   0.9779
B(  2-C , 10-H ) :   0.9798 B(  3-S ,  4-H ) :   0.9775

E(0)                                       ...   -515.802168223
E(0)                                       ...   -515.802168223
E(CORR)(strong-pairs)                      ...     -0.635443070
E(CORR)(weak-pairs)                        ...     -0.000152429
E(CORR)(corrected)                         ...     -0.635595500
E(TOT)                                     ...   -516.437763722
E(CCSD(T))                                 ...   -516.455774429
FINAL SINGLE POINT ENERGY      -516.455774429323

DIPOLE MOMENT
-------------
                                X             Y             Z
Electronic contribution:      6.02698      -0.89914      -0.16535
Nuclear contribution   :     -6.60875       1.21089       0.44347
                        -----------------------------------------
Total Dipole Moment    :     -0.58177       0.31174       0.27812
                        -----------------------------------------
Magnitude (a.u.)       :      0.71623
Magnitude (Debye)      :      1.82052

Rotational constants in cm-1:     0.260765     0.147105     0.103445
Rotational constants in MHz :  7817.552615  4410.084293  3101.203953

                             ****ORCA TERMINATED NORMALLY****
TOTAL RUN TIME: 0 days 0 hours 0 minutes 52 seconds 143 msec
