                         Program Version 4.1.x  -  STABLE  -
|  1> ! RHF DLPNO-CCSD(T) cc-pVDZ RIJK cc-pVTZ/JK cc-pVDZ/C
|  2> ! KDIIS SOSCF TightSCF TightPNO
|  3>
|  4> %pal nprocs 4 end
|  5>
|  6> %maxcore 8000
|  7>
|  8> %scf maxiter 300
|  9>      shift shift 0.2 erroff 0.1 end
| 10> end
| 11>
| 12> * xyzfile 0 1 3_3_Dimethyl_N_methylpyrrolidine_nlp.xyz
| 13>
| 14>
| 15>                          ****END OF INPUT****

CARTESIAN COORDINATES (ANGSTROEM)
---------------------------------
  C     -1.021930   -0.077340   -0.020900
  C     -0.495700    1.375620    0.009880
  C      1.038240    1.238440    0.024400
  C      0.228580   -0.861370   -0.459690
  N      1.288380   -0.171410    0.240360
  C      2.624850   -0.607400   -0.093560
  H     -0.873630    1.933400    0.898500
  H     -0.816820    1.939750   -0.897330
  C     -2.192300   -0.269630   -0.996880
  C     -1.451330   -0.516020    1.393950
  H      1.513840    1.837580    0.835630
  H      1.458550    1.561390   -0.958530
  H      0.380470   -0.785070   -1.562740
  H      0.185900   -1.936580   -0.169590
  H      2.845150   -0.459730   -1.176070
  H      3.367020   -0.037910    0.510780
  H      2.738640   -1.687140    0.154300
  H     -1.915680    0.031350   -2.033030
  H     -3.070440    0.343420   -0.690720
  H     -2.510180   -1.336580   -1.031730
  H     -2.322110    0.079440    1.751920
  H     -0.629170   -0.388990    2.134880
  H     -1.752720   -1.588280    1.408030

 Total Charge           Charge          ....    0
 Multiplicity           Mult            ....    1
 Number of Electrons    NEL             ....   64
 Basis Dimension        Dim             ....  187

ORBITAL ENERGIES
----------------

  NO   OCC          E(Eh)            E(eV)
   0   2.0000     -15.537696      -422.8022
   1   2.0000     -11.251350      -306.1648
   2   2.0000     -11.248751      -306.0941
   3   2.0000     -11.246276      -306.0267
   4   2.0000     -11.233055      -305.6670
   5   2.0000     -11.224105      -305.4234
   6   2.0000     -11.223657      -305.4112
   7   2.0000     -11.218258      -305.2643
   8   2.0000      -1.244298       -33.8591
   9   2.0000      -1.085585       -29.5403
  10   2.0000      -0.990575       -26.9549
  11   2.0000      -0.936909       -25.4946
  12   2.0000      -0.919182       -25.0122
  13   2.0000      -0.871249       -23.7079
  14   2.0000      -0.776068       -21.1179
  15   2.0000      -0.733620       -19.9628
  16   2.0000      -0.658294       -17.9131
  17   2.0000      -0.639630       -17.4052
  18   2.0000      -0.601149       -16.3581
  19   2.0000      -0.595083       -16.1930
  20   2.0000      -0.573519       -15.6062
  21   2.0000      -0.555316       -15.1109
  22   2.0000      -0.552077       -15.0228
  23   2.0000      -0.531431       -14.4610
  24   2.0000      -0.508897       -13.8478
  25   2.0000      -0.492982       -13.4147
  26   2.0000      -0.488590       -13.2952
  27   2.0000      -0.483277       -13.1506
  28   2.0000      -0.449084       -12.2202
  29   2.0000      -0.442257       -12.0344
  30   2.0000      -0.439087       -11.9482
  31   2.0000      -0.344090        -9.3632
  32   0.0000       0.172192         4.6856
  33   0.0000       0.194624         5.2960
  34   0.0000       0.215211         5.8562
  35   0.0000       0.220852         6.0097
  36   0.0000       0.233034         6.3412

MULLIKEN ATOMIC CHARGES
-----------------------
   0 C :   -0.475900
   1 C :    0.029139
   2 C :    0.131880
   3 C :    0.223922
   4 N :   -0.505438
   5 C :    0.102330
   6 H :    0.032297
   7 H :    0.027815
   8 C :    0.048995
   9 C :    0.047372
  10 H :    0.033619
  11 H :    0.004516
  12 H :    0.000005
  13 H :    0.030472
  14 H :    0.003569
  15 H :    0.037041
  16 H :    0.036533
  17 H :    0.028761
  18 H :    0.033415
  19 H :    0.031072
  20 H :    0.028312
  21 H :    0.044230
  22 H :    0.026042
Sum of atomic charges:    0.0000000

LOEWDIN ATOMIC CHARGES
----------------------
   0 C :   -0.071603
   1 C :   -0.018115
   2 C :   -0.008694
   3 C :    0.000616
   4 N :   -0.028206
   5 C :   -0.026297
   6 H :    0.021754
   7 H :    0.020193
   8 C :   -0.042859
   9 C :   -0.040515
  10 H :    0.016490
  11 H :   -0.002008
  12 H :   -0.004252
  13 H :    0.016278
  14 H :   -0.002092
  15 H :    0.021659
  16 H :    0.021526
  17 H :    0.019383
  18 H :    0.022605
  19 H :    0.021837
  20 H :    0.019002
  21 H :    0.024826
  22 H :    0.018474

  Mayer bond orders larger than 0.1
B(  0-C ,  1-C ) :   0.9929 B(  0-C ,  3-C ) :   1.0073 B(  0-C ,  8-C ) :   1.0583
B(  0-C ,  9-C ) :   1.0284 B(  1-C ,  2-C ) :   1.0603 B(  1-C ,  6-H ) :   0.9703
B(  1-C ,  7-H ) :   0.9685 B(  2-C ,  4-N ) :   0.9895 B(  2-C , 10-H ) :   0.9718
B(  2-C , 11-H ) :   0.9595 B(  3-C ,  4-N ) :   0.9893 B(  3-C , 12-H ) :   0.9549
B(  3-C , 13-H ) :   0.9679 B(  4-N ,  5-C ) :   1.0171 B(  5-C , 14-H ) :   0.9686
B(  5-C , 15-H ) :   0.9868 B(  5-C , 16-H ) :   0.9868 B(  8-C , 17-H ) :   0.9718
B(  8-C , 18-H ) :   0.9772 B(  8-C , 19-H ) :   0.9768 B(  9-C , 20-H ) :   0.9764
B(  9-C , 21-H ) :   0.9746 B(  9-C , 22-H ) :   0.9773

E(0)                                       ...   -328.265716321
E(0)                                       ...   -328.265716321
E(CORR)(strong-pairs)                      ...     -1.270894753
E(CORR)(weak-pairs)                        ...     -0.000684864
E(CORR)(corrected)                         ...     -1.271579616
E(TOT)                                     ...   -329.537295938
E(CCSD(T))                                 ...   -329.576989607
FINAL SINGLE POINT ENERGY      -329.576989607356

DIPOLE MOMENT
-------------
                                X             Y             Z
Electronic contribution:      1.50871       0.57840       0.67651
Nuclear contribution   :     -1.47969      -0.52552      -0.87521
                        -----------------------------------------
Total Dipole Moment    :      0.02902       0.05288      -0.19870
                        -----------------------------------------
Magnitude (a.u.)       :      0.20766
Magnitude (Debye)      :      0.52782

Rotational constants in cm-1:     0.115355     0.049384     0.046264
Rotational constants in MHz :  3458.266599  1480.482915  1386.974658

                             ****ORCA TERMINATED NORMALLY****
TOTAL RUN TIME: 0 days 0 hours 5 minutes 46 seconds 115 msec
