                         Program Version 4.1.x  -  STABLE  -
|  1> ! RHF DLPNO-CCSD(T) cc-pVDZ RIJK cc-pVTZ/JK cc-pVDZ/C
|  2> ! KDIIS SOSCF TightSCF TightPNO
|  3>
|  4> %pal nprocs 4 end
|  5>
|  6> %maxcore 8000
|  7>
|  8> %scf maxiter 300
|  9>      shift shift 0.2 erroff 0.1 end
| 10> end
| 11>
| 12> * xyzfile 0 1 3_3_Dimethyl_N_methylpyrrolidine_NI.xyz
| 13>
| 14>
| 15>                          ****END OF INPUT****

CARTESIAN COORDINATES (ANGSTROEM)
---------------------------------
  C     -1.020750   -0.092930   -0.005890
  C     -0.506800    1.312780   -0.383580
  C      0.984300    1.275770   -0.011260
  C      0.194290   -0.976600   -0.352120
  N      1.317920   -0.117940   -0.104210
  C      2.654210   -0.615680    0.041940
  H     -1.063690    2.133650    0.125970
  H     -0.603270    1.461760   -1.485360
  C     -2.275050   -0.493930   -0.796890
  C     -1.322630   -0.162700    1.504600
  H      1.153850    1.618270    1.036130
  H      1.605030    1.885180   -0.709200
  H      0.203600   -1.254620   -1.431420
  H      0.242040   -1.900780    0.268750
  H      2.858270   -1.388940   -0.732910
  H      3.395850    0.206750   -0.073780
  H      2.770000   -1.067030    1.053160
  H     -2.098640   -0.454440   -1.895910
  H     -3.123970    0.190170   -0.568890
  H     -2.589110   -1.532560   -0.545350
  H     -2.138630    0.542400    1.783230
  H     -0.432980    0.091290    2.124010
  H     -1.649250   -1.185770    1.800230

 Total Charge           Charge          ....    0
 Multiplicity           Mult            ....    1
 Number of Electrons    NEL             ....   64
 Basis Dimension        Dim             ....  187

ORBITAL ENERGIES
----------------

  NO   OCC          E(Eh)            E(eV)
   0   2.0000     -15.517359      -422.2488
   1   2.0000     -11.252153      -306.1866
   2   2.0000     -11.249660      -306.1188
   3   2.0000     -11.247331      -306.0554
   4   2.0000     -11.234517      -305.7068
   5   2.0000     -11.224788      -305.4420
   6   2.0000     -11.224032      -305.4214
   7   2.0000     -11.222835      -305.3889
   8   2.0000      -1.232630       -33.5416
   9   2.0000      -1.085170       -29.5290
  10   2.0000      -0.992251       -27.0005
  11   2.0000      -0.939599       -25.5678
  12   2.0000      -0.921669       -25.0799
  13   2.0000      -0.872799       -23.7501
  14   2.0000      -0.765534       -20.8312
  15   2.0000      -0.735209       -20.0060
  16   2.0000      -0.654339       -17.8055
  17   2.0000      -0.640783       -17.4366
  18   2.0000      -0.602235       -16.3876
  19   2.0000      -0.592369       -16.1192
  20   2.0000      -0.567896       -15.4532
  21   2.0000      -0.563227       -15.3262
  22   2.0000      -0.552487       -15.0339
  23   2.0000      -0.527478       -14.3534
  24   2.0000      -0.509013       -13.8510
  25   2.0000      -0.503468       -13.7001
  26   2.0000      -0.491736       -13.3808
  27   2.0000      -0.490332       -13.3426
  28   2.0000      -0.451525       -12.2866
  29   2.0000      -0.447110       -12.1665
  30   2.0000      -0.439329       -11.9548
  31   2.0000      -0.305706        -8.3187
  32   0.0000       0.168917         4.5965
  33   0.0000       0.195743         5.3264
  34   0.0000       0.219297         5.9674
  35   0.0000       0.223586         6.0841
  36   0.0000       0.232538         6.3277

MULLIKEN ATOMIC CHARGES
-----------------------
   0 C :   -0.509325
   1 C :    0.006465
   2 C :    0.195927
   3 C :    0.308396
   4 N :   -0.600717
   5 C :    0.133129
   6 H :    0.030134
   7 H :    0.030672
   8 C :    0.050926
   9 C :    0.043506
  10 H :    0.007725
  11 H :    0.020009
  12 H :    0.005059
  13 H :    0.015371
  14 H :    0.022207
  15 H :    0.030938
  16 H :    0.014373
  17 H :    0.030186
  18 H :    0.031683
  19 H :    0.032094
  20 H :    0.031251
  21 H :    0.038677
  22 H :    0.031313
Sum of atomic charges:    0.0000000

LOEWDIN ATOMIC CHARGES
----------------------
   0 C :   -0.073793
   1 C :   -0.018855
   2 C :   -0.007443
   3 C :    0.008067
   4 N :   -0.037224
   5 C :   -0.021706
   6 H :    0.020331
   7 H :    0.021211
   8 C :   -0.041966
   9 C :   -0.039537
  10 H :   -0.001658
  11 H :    0.008487
  12 H :    0.000307
  13 H :    0.009633
  14 H :    0.014313
  15 H :    0.022307
  16 H :    0.005589
  17 H :    0.020666
  18 H :    0.022321
  19 H :    0.022300
  20 H :    0.021006
  21 H :    0.024678
  22 H :    0.020967

  Mayer bond orders larger than 0.1
B(  0-C ,  1-C ) :   1.0169 B(  0-C ,  3-C ) :   0.9952 B(  0-C ,  8-C ) :   1.0583
B(  0-C ,  9-C ) :   1.0218 B(  1-C ,  2-C ) :   1.0499 B(  1-C ,  6-H ) :   0.9710
B(  1-C ,  7-H ) :   0.9627 B(  2-C ,  4-N ) :   0.9915 B(  2-C , 10-H ) :   0.9570
B(  2-C , 11-H ) :   0.9661 B(  3-C ,  4-N ) :   0.9831 B(  3-C , 12-H ) :   0.9570
B(  3-C , 13-H ) :   0.9607 B(  4-N ,  5-C ) :   1.0142 B(  5-C , 14-H ) :   0.9803
B(  5-C , 15-H ) :   0.9847 B(  5-C , 16-H ) :   0.9765 B(  8-C , 17-H ) :   0.9720
B(  8-C , 18-H ) :   0.9770 B(  8-C , 19-H ) :   0.9769 B(  9-C , 20-H ) :   0.9768
B(  9-C , 21-H ) :   0.9773 B(  9-C , 22-H ) :   0.9776

E(0)                                       ...   -328.255739980
E(0)                                       ...   -328.255739980
E(CORR)(strong-pairs)                      ...     -1.268376328
E(CORR)(weak-pairs)                        ...     -0.000674929
E(CORR)(corrected)                         ...     -1.269051257
E(TOT)                                     ...   -329.524791238
E(CCSD(T))                                 ...   -329.564094180
FINAL SINGLE POINT ENERGY      -329.564094179690

DIPOLE MOMENT
-------------
                                X             Y             Z
Electronic contribution:      1.52295       0.72888      -0.81215
Nuclear contribution   :     -1.55353      -0.69585       0.79426
                        -----------------------------------------
Total Dipole Moment    :     -0.03059       0.03303      -0.01789
                        -----------------------------------------
Magnitude (a.u.)       :      0.04844
Magnitude (Debye)      :      0.12313

Rotational constants in cm-1:     0.114985     0.049197     0.045937
Rotational constants in MHz :  3447.164852  1474.898916  1377.145317

                             ****ORCA TERMINATED NORMALLY****
TOTAL RUN TIME: 0 days 0 hours 5 minutes 36 seconds 357 msec
