                         Program Version 4.1.x  -  STABLE  -
|  1> ! RHF DLPNO-CCSD(T) cc-pVDZ RIJK cc-pVTZ/JK cc-pVDZ/C
|  2> ! KDIIS SOSCF TightSCF TightPNO
|  3>
|  4> %pal nprocs 4 end
|  5>
|  6> %maxcore 8000
|  7>
|  8> %scf maxiter 300
|  9>      shift shift 0.2 erroff 0.1 end
| 10> end
| 11>
| 12> * xyzfile 0 1 3_keto_cyclodecanone.xyz
| 13>
| 14>
| 15>                          ****END OF INPUT****

CARTESIAN COORDINATES (ANGSTROEM)
---------------------------------
  C      1.989030   -1.099840   -0.495770
  C      2.226610    0.081270    0.467860
  C      1.959770    1.513910   -0.039910
  C      0.505590    1.878560   -0.404750
  C     -0.526900    1.631730    0.713450
  C     -1.976320    1.449720    0.227140
  C     -2.236880    0.236880   -0.688880
  C     -1.932640   -1.152640   -0.084160
  C     -0.476270   -1.534780    0.181260
  O     -0.151390   -2.027770    1.251040
  C      0.540380   -1.385190   -0.947720
  H      2.596330   -0.961370   -1.400680
  H      2.369710   -2.000250   -0.001680
  H      0.526470   -2.349280   -1.479490
  H      0.193700   -0.649710   -1.676100
  H      3.284820    0.038480    0.757930
  H      1.669960   -0.101660    1.392890
  H      2.594230    1.708230   -0.916410
  H      2.308220    2.205550    0.740220
  H      0.218390    1.332140   -1.308000
  H      0.475170    2.938400   -0.691620
  H     -2.470190   -1.291020    0.860010
  H     -2.315440   -1.912460   -0.783290
  H     -0.497520    2.472060    1.419610
  H     -0.246550    0.754680    1.305150
  H     -2.299130    2.353160   -0.309150
  H     -2.629720    1.368650    1.106480
  H     -3.300590    0.243220   -0.957610
  H     -1.700800    0.355510   -1.637620

 Total Charge           Charge          ....    0
 Multiplicity           Mult            ....    1
 Number of Electrons    NEL             ....   86
 Basis Dimension        Dim             ....  244

ORBITAL ENERGIES
----------------

  NO   OCC          E(Eh)            E(eV)
   0   2.0000     -20.540403      -558.9328
   1   2.0000     -11.329638      -308.2951
   2   2.0000     -11.239956      -305.8547
   3   2.0000     -11.239347      -305.8382
   4   2.0000     -11.238337      -305.8107
   5   2.0000     -11.230491      -305.5972
   6   2.0000     -11.229978      -305.5832
   7   2.0000     -11.224728      -305.4404
   8   2.0000     -11.224193      -305.4258
   9   2.0000     -11.223448      -305.4055
  10   2.0000     -11.219848      -305.3076
  11   2.0000      -1.376036       -37.4438
  12   2.0000      -1.103398       -30.0250
  13   2.0000      -1.070708       -29.1355
  14   2.0000      -1.051767       -28.6200
  15   2.0000      -0.982723       -26.7413
  16   2.0000      -0.962471       -26.1902
  17   2.0000      -0.881807       -23.9952
  18   2.0000      -0.853156       -23.2155
  19   2.0000      -0.788765       -21.4634
  20   2.0000      -0.761721       -20.7275
  21   2.0000      -0.710249       -19.3269
  22   2.0000      -0.667898       -18.1744
  23   2.0000      -0.651138       -17.7184
  24   2.0000      -0.627577       -17.0772
  25   2.0000      -0.613762       -16.7013
  26   2.0000      -0.605884       -16.4869
  27   2.0000      -0.601199       -16.3595
  28   2.0000      -0.582655       -15.8548
  29   2.0000      -0.559450       -15.2234
  30   2.0000      -0.553979       -15.0745
  31   2.0000      -0.535758       -14.5787
  32   2.0000      -0.516323       -14.0499
  33   2.0000      -0.509439       -13.8625
  34   2.0000      -0.498601       -13.5676
  35   2.0000      -0.494945       -13.4681
  36   2.0000      -0.477207       -12.9855
  37   2.0000      -0.467890       -12.7319
  38   2.0000      -0.452854       -12.3228
  39   2.0000      -0.443011       -12.0549
  40   2.0000      -0.440738       -11.9931
  41   2.0000      -0.436276       -11.8717
  42   2.0000      -0.393395       -10.7048
  43   0.0000       0.144990         3.9454
  44   0.0000       0.179927         4.8961
  45   0.0000       0.186346         5.0707
  46   0.0000       0.194093         5.2815
  47   0.0000       0.207037         5.6338

MULLIKEN ATOMIC CHARGES
-----------------------
   0 C :   -0.009145
   1 C :   -0.075259
   2 C :   -0.020744
   3 C :   -0.061861
   4 C :   -0.079082
   5 C :   -0.018294
   6 C :   -0.078868
   7 C :   -0.002429
   8 C :    0.149919
   9 O :   -0.358502
  10 C :   -0.067857
  11 H :    0.021136
  12 H :    0.045820
  13 H :    0.062482
  14 H :    0.034621
  15 H :    0.026305
  16 H :    0.051087
  17 H :    0.018426
  18 H :    0.025745
  19 H :    0.017963
  20 H :    0.026335
  21 H :    0.049421
  22 H :    0.050261
  23 H :    0.029518
  24 H :    0.046568
  25 H :    0.025159
  26 H :    0.027251
  27 H :    0.035907
  28 H :    0.028118
Sum of atomic charges:   -0.0000000

LOEWDIN ATOMIC CHARGES
----------------------
   0 C :   -0.023287
   1 C :   -0.038320
   2 C :   -0.032729
   3 C :   -0.039193
   4 C :   -0.039865
   5 C :   -0.030278
   6 C :   -0.035300
   7 C :   -0.043084
   8 C :    0.021143
   9 O :   -0.111760
  10 C :   -0.054299
  11 H :    0.019847
  12 H :    0.030178
  13 H :    0.043376
  14 H :    0.018623
  15 H :    0.025827
  16 H :    0.021557
  17 H :    0.017841
  18 H :    0.021172
  19 H :    0.009698
  20 H :    0.020938
  21 H :    0.032475
  22 H :    0.038813
  23 H :    0.023132
  24 H :    0.018256
  25 H :    0.020311
  26 H :    0.021989
  27 H :    0.028162
  28 H :    0.014777

  Mayer bond orders larger than 0.1
B(  0-C ,  1-C ) :   1.0501 B(  0-C , 10-C ) :   1.0537 B(  0-C , 11-H ) :   0.9660
B(  0-C , 12-H ) :   0.9624 B(  1-C ,  2-C ) :   1.0449 B(  1-C , 15-H ) :   0.9681
B(  1-C , 16-H ) :   0.9632 B(  2-C ,  3-C ) :   1.0589 B(  2-C , 17-H ) :   0.9665
B(  2-C , 18-H ) :   0.9658 B(  3-C ,  4-C ) :   1.0176 B(  3-C , 19-H ) :   0.9684
B(  3-C , 20-H ) :   0.9682 B(  4-C ,  5-C ) :   1.0603 B(  4-C , 23-H ) :   0.9685
B(  4-C , 24-H ) :   0.9617 B(  5-C ,  6-C ) :   1.0430 B(  5-C , 25-H ) :   0.9666
B(  5-C , 26-H ) :   0.9667 B(  6-C ,  7-C ) :   1.0383 B(  6-C , 27-H ) :   0.9681
B(  6-C , 28-H ) :   0.9650 B(  7-C ,  8-C ) :   1.0189 B(  7-C , 21-H ) :   0.9582
B(  7-C , 22-H ) :   0.9500 B(  8-C ,  9-O ) :   2.0467 B(  8-C , 10-C ) :   0.9607
B( 10-C , 13-H ) :   0.9469 B( 10-C , 14-H ) :   0.9618

E(0)                                       ...   -464.056367515
E(0)                                       ...   -464.056367515
E(CORR)(strong-pairs)                      ...     -1.712020815
E(CORR)(weak-pairs)                        ...     -0.001082064
E(CORR)(corrected)                         ...     -1.713102880
E(TOT)                                     ...   -465.769470395
E(CCSD(T))                                 ...   -465.824229359
FINAL SINGLE POINT ENERGY      -465.824229358670

DIPOLE MOMENT
-------------
                                X             Y             Z
Electronic contribution:     -1.09912      -6.25127       2.73766
Nuclear contribution   :      0.81111       6.77707      -3.72722
                        -----------------------------------------
Total Dipole Moment    :     -0.28801       0.52579      -0.98956
                        -----------------------------------------
Magnitude (a.u.)       :      1.15699
Magnitude (Debye)      :      2.94084

Rotational constants in cm-1:     0.041757     0.035540     0.023430
Rotational constants in MHz :  1251.848463  1065.459521   702.399750

                             ****ORCA TERMINATED NORMALLY****
TOTAL RUN TIME: 0 days 0 hours 9 minutes 59 seconds 728 msec
