                         Program Version 4.1.x  -  STABLE  -
|  1> ! RHF DLPNO-CCSD(T) cc-pVDZ RIJK cc-pVTZ/JK cc-pVDZ/C
|  2> ! KDIIS SOSCF TightSCF TightPNO
|  3>
|  4> %pal nprocs 4 end
|  5>
|  6> %maxcore 8000
|  7>
|  8> %scf maxiter 300
|  9>      shift shift 0.2 erroff 0.1 end
| 10> end
| 11>
| 12> * xyzfile 0 1 3_Me_THP_eq.xyz
| 13>
| 14>
| 15>                          ****END OF INPUT****

CARTESIAN COORDINATES (ANGSTROEM)
---------------------------------
  C      0.261840   -1.230040    0.129480
  O     -1.108200   -1.245470   -0.262730
  C     -1.837300   -0.141640    0.269530
  C     -1.254110    1.195360   -0.192660
  C      0.239430    1.276700    0.159690
  C      0.994420    0.033360   -0.344850
  C      2.462220    0.022440    0.095340
  H     -2.868600   -0.271450   -0.070790
  H     -1.831570   -0.195760    1.372870
  H     -1.810440    2.019920    0.270930
  H     -1.386490    1.282950   -1.278810
  H      0.353400    1.342910    1.252730
  H      0.687010    2.187690   -0.257130
  H      0.956480    0.033310   -1.444040
  H      0.332400   -1.308860    1.230050
  H      2.548420    0.006170    1.189060
  H      2.985840    0.915160   -0.264500
  H      2.992220   -0.854300   -0.294840
  H      0.707890   -2.131050   -0.302950

 Total Charge           Charge          ....    0
 Multiplicity           Mult            ....    1
 Number of Electrons    NEL             ....   56
 Basis Dimension        Dim             ....  158

ORBITAL ENERGIES
----------------

  NO   OCC          E(Eh)            E(eV)
   0   2.0000     -20.546054      -559.0866
   1   2.0000     -11.273560      -306.7692
   2   2.0000     -11.272000      -306.7267
   3   2.0000     -11.229457      -305.5691
   4   2.0000     -11.227438      -305.5141
   5   2.0000     -11.225797      -305.4695
   6   2.0000     -11.224976      -305.4471
   7   2.0000      -1.364230       -37.1226
   8   2.0000      -1.089712       -29.6526
   9   2.0000      -1.035855       -28.1871
  10   2.0000      -0.935424       -25.4542
  11   2.0000      -0.876458       -23.8496
  12   2.0000      -0.826579       -22.4924
  13   2.0000      -0.763758       -20.7829
  14   2.0000      -0.666961       -18.1489
  15   2.0000      -0.639292       -17.3960
  16   2.0000      -0.615629       -16.7521
  17   2.0000      -0.603804       -16.4303
  18   2.0000      -0.595178       -16.1956
  19   2.0000      -0.548188       -14.9170
  20   2.0000      -0.536460       -14.5978
  21   2.0000      -0.525553       -14.3010
  22   2.0000      -0.517166       -14.0728
  23   2.0000      -0.485016       -13.1979
  24   2.0000      -0.470775       -12.8104
  25   2.0000      -0.447937       -12.1890
  26   2.0000      -0.440567       -11.9884
  27   2.0000      -0.396243       -10.7823
  28   0.0000       0.180029         4.8988
  29   0.0000       0.198296         5.3959
  30   0.0000       0.199649         5.4327
  31   0.0000       0.225876         6.1464
  32   0.0000       0.245739         6.6869

MULLIKEN ATOMIC CHARGES
-----------------------
   0 C :    0.278761
   1 O :   -0.501072
   2 C :    0.215854
   3 C :   -0.053214
   4 C :   -0.030338
   5 C :   -0.237244
   6 C :    0.011056
   7 H :    0.034837
   8 H :    0.011573
   9 H :    0.025598
  10 H :    0.034810
  11 H :    0.021046
  12 H :    0.028850
  13 H :    0.025594
  14 H :    0.007602
  15 H :    0.027696
  16 H :    0.032551
  17 H :    0.032241
  18 H :    0.033800
Sum of atomic charges:    0.0000000

LOEWDIN ATOMIC CHARGES
----------------------
   0 C :    0.025932
   1 O :   -0.088242
   2 C :    0.022303
   3 C :   -0.042851
   4 C :   -0.028989
   5 C :   -0.055143
   6 C :   -0.043812
   7 H :    0.020513
   8 H :    0.004014
   9 H :    0.022362
  10 H :    0.021159
  11 H :    0.015230
  12 H :    0.019547
  13 H :    0.019832
  14 H :    0.002867
  15 H :    0.019579
  16 H :    0.023646
  17 H :    0.022418
  18 H :    0.019635

  Mayer bond orders larger than 0.1
B(  0-C ,  1-O ) :   0.9667 B(  0-C ,  5-C ) :   1.0203 B(  0-C , 14-H ) :   0.9608
B(  0-C , 18-H ) :   0.9764 B(  1-O ,  2-C ) :   0.9642 B(  2-C ,  3-C ) :   1.0436
B(  2-C ,  7-H ) :   0.9817 B(  2-C ,  8-H ) :   0.9639 B(  3-C ,  4-C ) :   1.0506
B(  3-C ,  9-H ) :   0.9682 B(  3-C , 10-H ) :   0.9601 B(  4-C ,  5-C ) :   1.0147
B(  4-C , 11-H ) :   0.9624 B(  4-C , 12-H ) :   0.9727 B(  5-C ,  6-C ) :   1.0577
B(  5-C , 13-H ) :   0.9507 B(  6-C , 15-H ) :   0.9746 B(  6-C , 16-H ) :   0.9785
B(  6-C , 17-H ) :   0.9805

E(0)                                       ...   -309.073880488
E(0)                                       ...   -309.073880488
E(CORR)(strong-pairs)                      ...     -1.113806645
E(CORR)(weak-pairs)                        ...     -0.000462420
E(CORR)(corrected)                         ...     -1.114269066
E(TOT)                                     ...   -310.188149554
E(CCSD(T))                                 ...   -310.221125940
FINAL SINGLE POINT ENERGY      -310.221125940441

DIPOLE MOMENT
-------------
                                X             Y             Z
Electronic contribution:     -3.55754      -2.65803      -1.22377
Nuclear contribution   :      3.83166       3.15750       1.46842
                        -----------------------------------------
Total Dipole Moment    :      0.27413       0.49947       0.24465
                        -----------------------------------------
Magnitude (a.u.)       :      0.62005
Magnitude (Debye)      :      1.57605

Rotational constants in cm-1:     0.146333     0.075282     0.054537
Rotational constants in MHz :  4386.962523  2256.896557  1634.969330

                             ****ORCA TERMINATED NORMALLY****
TOTAL RUN TIME: 0 days 0 hours 2 minutes 41 seconds 545 msec
