                         Program Version 4.1.x  -  STABLE  -
|  1> ! RHF DLPNO-CCSD(T) cc-pVDZ RIJK cc-pVTZ/JK cc-pVDZ/C
|  2> ! KDIIS SOSCF TightSCF TightPNO
|  3>
|  4> %pal nprocs 4 end
|  5>
|  6> %maxcore 8000
|  7>
|  8> %scf maxiter 300
|  9>      shift shift 0.2 erroff 0.1 end
| 10> end
| 11>
| 12> * xyzfile 0 1 3_methylthiane_ax.xyz
| 13>
| 14>
| 15>                          ****END OF INPUT****

CARTESIAN COORDINATES (ANGSTROEM)
---------------------------------
  C     -1.326520   -0.174500    0.460290
  C     -0.858010    1.296600    0.542320
  C      0.345900    1.644620   -0.350620
  C      1.586820    0.806290   -0.028750
  S      1.299580   -0.994010   -0.257190
  C     -0.182800   -1.141700    0.821420
  C     -1.991070   -0.519370   -0.881320
  H      0.088520    1.515980   -1.408460
  H      0.595230    2.705880   -0.213770
  H      1.917410    0.984810    1.002420
  H      2.419740    1.059970   -0.691140
  H     -1.699680    1.953870    0.290190
  H     -0.593810    1.521360    1.586090
  H      0.130290   -0.984210    1.860750
  H     -2.087700   -0.307120    1.244260
  H     -0.508540   -2.182880    0.730770
  H     -1.281860   -0.471730   -1.712530
  H     -2.403870   -1.534590   -0.859530
  H     -2.814930    0.171260   -1.094040

 Total Charge           Charge          ....    0
 Multiplicity           Mult            ....    1
 Number of Electrons    NEL             ....   64
 Basis Dimension        Dim             ....  162

ORBITAL ENERGIES
----------------

  NO   OCC          E(Eh)            E(eV)
   0   2.0000     -91.930889     -2501.5667
   1   2.0000     -11.257389      -306.3291
   2   2.0000     -11.256406      -306.3024
   3   2.0000     -11.238334      -305.8106
   4   2.0000     -11.232939      -305.6638
   5   2.0000     -11.230020      -305.5844
   6   2.0000     -11.218854      -305.2805
   7   2.0000      -8.933985      -243.1061
   8   2.0000      -6.615851      -180.0265
   9   2.0000      -6.614429      -179.9878
  10   2.0000      -6.612272      -179.9291
  11   2.0000      -1.120701       -30.4958
  12   2.0000      -1.036229       -28.1972
  13   2.0000      -1.004066       -27.3220
  14   2.0000      -0.928390       -25.2628
  15   2.0000      -0.838598       -22.8194
  16   2.0000      -0.819962       -22.3123
  17   2.0000      -0.729054       -19.8386
  18   2.0000      -0.645949       -17.5772
  19   2.0000      -0.621976       -16.9248
  20   2.0000      -0.608133       -16.5481
  21   2.0000      -0.586618       -15.9627
  22   2.0000      -0.559410       -15.2223
  23   2.0000      -0.548726       -14.9316
  24   2.0000      -0.511726       -13.9248
  25   2.0000      -0.502880       -13.6841
  26   2.0000      -0.489997       -13.3335
  27   2.0000      -0.484197       -13.1757
  28   2.0000      -0.462219       -12.5776
  29   2.0000      -0.429286       -11.6815
  30   2.0000      -0.406778       -11.0690
  31   2.0000      -0.328647        -8.9429
  32   0.0000       0.169004         4.5988
  33   0.0000       0.189253         5.1498
  34   0.0000       0.203256         5.5309
  35   0.0000       0.215706         5.8697
  36   0.0000       0.223729         6.0880

MULLIKEN ATOMIC CHARGES
-----------------------
   0 C :   -0.183243
   1 C :   -0.016424
   2 C :   -0.024352
   3 C :   -0.121776
   4 S :   -0.077255
   5 C :   -0.076065
   6 C :    0.010693
   7 H :    0.040066
   8 H :    0.030847
   9 H :    0.058018
  10 H :    0.064467
  11 H :    0.027874
  12 H :    0.022022
  13 H :    0.059348
  14 H :    0.020701
  15 H :    0.062546
  16 H :    0.046651
  17 H :    0.028256
  18 H :    0.027628
Sum of atomic charges:   -0.0000000

LOEWDIN ATOMIC CHARGES
----------------------
   0 C :   -0.055344
   1 C :   -0.028809
   2 C :   -0.045996
   3 C :   -0.126805
   4 S :    0.180219
   5 C :   -0.120554
   6 C :   -0.046654
   7 H :    0.021103
   8 H :    0.023557
   9 H :    0.014213
  10 H :    0.023820
  11 H :    0.021220
  12 H :    0.017514
  13 H :    0.015426
  14 H :    0.022977
  15 H :    0.022351
  16 H :    0.019707
  17 H :    0.021541
  18 H :    0.020512

  Mayer bond orders larger than 0.1
B(  0-C ,  1-C ) :   1.0396 B(  0-C ,  5-C ) :   1.0164 B(  0-C ,  6-C ) :   1.0337
B(  0-C , 14-H ) :   0.9570 B(  1-C ,  2-C ) :   1.0396 B(  1-C , 11-H ) :   0.9704
B(  1-C , 12-H ) :   0.9656 B(  2-C ,  3-C ) :   1.0253 B(  2-C ,  7-H ) :   0.9649
B(  2-C ,  8-H ) :   0.9671 B(  3-C ,  4-S ) :   1.0076 B(  3-C ,  9-H ) :   0.9641
B(  3-C , 10-H ) :   0.9746 B(  4-S ,  5-C ) :   1.0071 B(  5-C , 13-H ) :   0.9674
B(  5-C , 15-H ) :   0.9710 B(  6-C , 16-H ) :   0.9750 B(  6-C , 17-H ) :   0.9807
B(  6-C , 18-H ) :   0.9809

E(0)                                       ...   -631.747089005
E(0)                                       ...   -631.747089005
E(CORR)(strong-pairs)                      ...     -1.075744394
E(CORR)(weak-pairs)                        ...     -0.000437464
E(CORR)(corrected)                         ...     -1.076181857
E(TOT)                                     ...   -632.823270863
E(CCSD(T))                                 ...   -632.857377363
FINAL SINGLE POINT ENERGY      -632.857377362893

DIPOLE MOMENT
-------------
                                X             Y             Z
Electronic contribution:      6.07287      -4.08707      -0.43953
Nuclear contribution   :     -6.49405       4.61590       0.76835
                        -----------------------------------------
Total Dipole Moment    :     -0.42117       0.52882       0.32882
                        -----------------------------------------
Magnitude (a.u.)       :      0.75177
Magnitude (Debye)      :      1.91085

Rotational constants in cm-1:     0.093346     0.069809     0.050367
Rotational constants in MHz :  2798.435518  2092.813545  1509.977929

                             ****ORCA TERMINATED NORMALLY****
TOTAL RUN TIME: 0 days 0 hours 2 minutes 36 seconds 173 msec
