                         Program Version 4.1.x  -  STABLE  -
|  1> ! RHF DLPNO-CCSD(T) cc-pVDZ RIJK cc-pVTZ/JK cc-pVDZ/C
|  2> ! KDIIS SOSCF TightSCF TightPNO
|  3>
|  4> %pal nprocs 4 end
|  5>
|  6> %maxcore 8000
|  7>
|  8> %scf maxiter 300
|  9>      shift shift 0.2 erroff 0.1 end
| 10> end
| 11>
| 12> * xyzfile 0 1 3_Me_THP_ax.xyz
| 13>
| 14>
| 15>                          ****END OF INPUT****

CARTESIAN COORDINATES (ANGSTROEM)
---------------------------------
  C      0.222640   -1.237070    0.588670
  O     -0.827480   -1.241370   -0.377410
  C     -1.726470   -0.148170   -0.197180
  C     -1.011690    1.198490   -0.332500
  C      0.183420    1.267500    0.633600
  C      1.095230    0.026530    0.500690
  C      1.948170    0.044280   -0.777470
  H     -2.504860   -0.270680   -0.955820
  H     -2.202170   -0.226750    0.796870
  H     -1.719320    2.012070   -0.128140
  H     -0.674440    1.320080   -1.368800
  H     -0.196820    1.318680    1.663920
  H      0.761720    2.184650    0.467400
  H      1.776800    0.007450    1.363500
  H     -0.212580   -1.320850    1.599990
  H      1.328640   -0.012310   -1.677420
  H      2.635510   -0.809270   -0.797760
  H      2.549670    0.958710   -0.834650
  H      0.809850   -2.140200    0.395290

 Total Charge           Charge          ....    0
 Multiplicity           Mult            ....    1
 Number of Electrons    NEL             ....   56
 Basis Dimension        Dim             ....  158

ORBITAL ENERGIES
----------------

  NO   OCC          E(Eh)            E(eV)
   0   2.0000     -20.546453      -559.0974
   1   2.0000     -11.273755      -306.7745
   2   2.0000     -11.272195      -306.7320
   3   2.0000     -11.230505      -305.5976
   4   2.0000     -11.227669      -305.5204
   5   2.0000     -11.225478      -305.4608
   6   2.0000     -11.217886      -305.2542
   7   2.0000      -1.364055       -37.1178
   8   2.0000      -1.086755       -29.5721
   9   2.0000      -1.033437       -28.1213
  10   2.0000      -0.932916       -25.3859
  11   2.0000      -0.875630       -23.8271
  12   2.0000      -0.838142       -22.8070
  13   2.0000      -0.741776       -20.1848
  14   2.0000      -0.671331       -18.2679
  15   2.0000      -0.634473       -17.2649
  16   2.0000      -0.626392       -17.0450
  17   2.0000      -0.611808       -16.6481
  18   2.0000      -0.574832       -15.6420
  19   2.0000      -0.558192       -15.1892
  20   2.0000      -0.539030       -14.6678
  21   2.0000      -0.524217       -14.2647
  22   2.0000      -0.506037       -13.7700
  23   2.0000      -0.484198       -13.1757
  24   2.0000      -0.471996       -12.8437
  25   2.0000      -0.446912       -12.1611
  26   2.0000      -0.436293       -11.8721
  27   2.0000      -0.396263       -10.7829
  28   0.0000       0.174688         4.7535
  29   0.0000       0.202614         5.5134
  30   0.0000       0.210878         5.7383
  31   0.0000       0.230177         6.2634
  32   0.0000       0.241976         6.5845

MULLIKEN ATOMIC CHARGES
-----------------------
   0 C :    0.267597
   1 O :   -0.500480
   2 C :    0.217386
   3 C :   -0.062878
   4 C :   -0.025524
   5 C :   -0.219409
   6 C :    0.008234
   7 H :    0.034474
   8 H :    0.011115
   9 H :    0.026076
  10 H :    0.036363
  11 H :    0.023368
  12 H :    0.027207
  13 H :    0.014063
  14 H :    0.013976
  15 H :    0.041264
  16 H :    0.029033
  17 H :    0.026964
  18 H :    0.031173
Sum of atomic charges:    0.0000000

LOEWDIN ATOMIC CHARGES
----------------------
   0 C :    0.028158
   1 O :   -0.090768
   2 C :    0.022645
   3 C :   -0.044227
   4 C :   -0.027628
   5 C :   -0.054071
   6 C :   -0.045215
   7 H :    0.020258
   8 H :    0.004091
   9 H :    0.022587
  10 H :    0.020236
  11 H :    0.017381
  12 H :    0.018784
  13 H :    0.020561
  14 H :    0.005124
  15 H :    0.021919
  16 H :    0.021433
  17 H :    0.019907
  18 H :    0.018826

  Mayer bond orders larger than 0.1
B(  0-C ,  1-O ) :   0.9616 B(  0-C ,  5-C ) :   1.0191 B(  0-C , 14-H ) :   0.9669
B(  0-C , 18-H ) :   0.9795 B(  1-O ,  2-C ) :   0.9629 B(  2-C ,  3-C ) :   1.0415
B(  2-C ,  7-H ) :   0.9818 B(  2-C ,  8-H ) :   0.9649 B(  3-C ,  4-C ) :   1.0347
B(  3-C ,  9-H ) :   0.9696 B(  3-C , 10-H ) :   0.9639 B(  4-C ,  5-C ) :   1.0359
B(  4-C , 11-H ) :   0.9672 B(  4-C , 12-H ) :   0.9745 B(  5-C ,  6-C ) :   1.0304
B(  5-C , 13-H ) :   0.9613 B(  6-C , 15-H ) :   0.9771 B(  6-C , 16-H ) :   0.9812
B(  6-C , 17-H ) :   0.9819

E(0)                                       ...   -309.071480412
E(0)                                       ...   -309.071480412
E(CORR)(strong-pairs)                      ...     -1.114613665
E(CORR)(weak-pairs)                        ...     -0.000467767
E(CORR)(corrected)                         ...     -1.115081432
E(TOT)                                     ...   -310.186561845
E(CCSD(T))                                 ...   -310.219611517
FINAL SINGLE POINT ENERGY      -310.219611517042

DIPOLE MOMENT
-------------
                                X             Y             Z
Electronic contribution:     -2.34925      -2.67295      -0.16978
Nuclear contribution   :      2.45598       3.15221       0.54438
                        -----------------------------------------
Total Dipole Moment    :      0.10674       0.47925       0.37460
                        -----------------------------------------
Magnitude (a.u.)       :      0.61758
Magnitude (Debye)      :      1.56975

Rotational constants in cm-1:     0.121554     0.087264     0.066145
Rotational constants in MHz :  3644.091843  2616.109826  1982.973514

                             ****ORCA TERMINATED NORMALLY****
TOTAL RUN TIME: 0 days 0 hours 2 minutes 31 seconds 104 msec
