                         Program Version 4.1.x  -  STABLE  -
|  1> ! RHF DLPNO-CCSD(T) cc-pVDZ RIJK cc-pVTZ/JK cc-pVDZ/C
|  2> ! KDIIS SOSCF TightSCF TightPNO
|  3>
|  4> %pal nprocs 4 end
|  5>
|  6> %maxcore 8000
|  7>
|  8> %scf maxiter 300
|  9>      shift shift 0.2 erroff 0.1 end
| 10> end
| 11>
| 12> * xyzfile 0 1 3_methylthiane_eq.xyz
| 13>
| 14>
| 15>                          ****END OF INPUT****

CARTESIAN COORDINATES (ANGSTROEM)
---------------------------------
  C     -1.217350   -0.078200   -0.321960
  C     -0.744790    1.318110    0.126150
  C      0.711150    1.642020   -0.247200
  C      1.717820    0.661180    0.359680
  S      1.431330   -1.068530   -0.183350
  C     -0.342140   -1.189240    0.279580
  C     -2.692030   -0.303900    0.045880
  H      0.821920    1.639270   -1.338940
  H      0.956720    2.655940    0.097460
  H      1.686110    0.701030    1.455670
  H      2.739390    0.901080    0.050080
  H     -1.406160    2.076220   -0.312430
  H     -0.865360    1.398680    1.217700
  H     -0.426140   -1.187870    1.374430
  H     -1.119400   -0.136400   -1.415340
  H     -0.668270   -2.173280   -0.072300
  H     -2.839170   -0.263250    1.132390
  H     -3.329880    0.465230   -0.404450
  H     -3.047090   -1.280060   -0.303510

 Total Charge           Charge          ....    0
 Multiplicity           Mult            ....    1
 Number of Electrons    NEL             ....   64
 Basis Dimension        Dim             ....  162

ORBITAL ENERGIES
----------------

  NO   OCC          E(Eh)            E(eV)
   0   2.0000     -91.931049     -2501.5710
   1   2.0000     -11.257118      -306.3217
   2   2.0000     -11.255782      -306.2854
   3   2.0000     -11.237234      -305.7807
   4   2.0000     -11.233231      -305.6717
   5   2.0000     -11.229853      -305.5798
   6   2.0000     -11.225882      -305.4718
   7   2.0000      -8.934114      -243.1096
   8   2.0000      -6.615990      -180.0302
   9   2.0000      -6.614552      -179.9911
  10   2.0000      -6.612382      -179.9321
  11   2.0000      -1.121779       -30.5251
  12   2.0000      -1.041088       -28.3295
  13   2.0000      -1.004777       -27.3414
  14   2.0000      -0.927239       -25.2315
  15   2.0000      -0.840089       -22.8600
  16   2.0000      -0.808676       -22.0052
  17   2.0000      -0.753416       -20.5015
  18   2.0000      -0.643985       -17.5237
  19   2.0000      -0.620982       -16.8978
  20   2.0000      -0.596759       -16.2386
  21   2.0000      -0.585265       -15.9259
  22   2.0000      -0.564715       -15.3667
  23   2.0000      -0.543837       -14.7986
  24   2.0000      -0.529879       -14.4187
  25   2.0000      -0.496415       -13.5082
  26   2.0000      -0.490022       -13.3342
  27   2.0000      -0.486729       -13.2446
  28   2.0000      -0.464521       -12.6402
  29   2.0000      -0.431551       -11.7431
  30   2.0000      -0.408450       -11.1145
  31   2.0000      -0.328660        -8.9433
  32   0.0000       0.174118         4.7380
  33   0.0000       0.185053         5.0356
  34   0.0000       0.197962         5.3868
  35   0.0000       0.215183         5.8554
  36   0.0000       0.223406         6.0792

MULLIKEN ATOMIC CHARGES
-----------------------
   0 C :   -0.186733
   1 C :   -0.021898
   2 C :   -0.011418
   3 C :   -0.122502
   4 S :   -0.068055
   5 C :   -0.086690
   6 C :    0.014258
   7 H :    0.038102
   8 H :    0.029991
   9 H :    0.058974
  10 H :    0.064770
  11 H :    0.028758
  12 H :    0.020567
  13 H :    0.055919
  14 H :    0.029756
  15 H :    0.063763
  16 H :    0.028021
  17 H :    0.032437
  18 H :    0.031981
Sum of atomic charges:   -0.0000000

LOEWDIN ATOMIC CHARGES
----------------------
   0 C :   -0.055743
   1 C :   -0.029607
   2 C :   -0.044602
   3 C :   -0.127786
   4 S :    0.182582
   5 C :   -0.123216
   6 C :   -0.042621
   7 H :    0.021405
   8 H :    0.023182
   9 H :    0.014373
  10 H :    0.024201
  11 H :    0.021823
  12 H :    0.015515
  13 H :    0.013383
  14 H :    0.019774
  15 H :    0.023074
  16 H :    0.019718
  17 H :    0.022690
  18 H :    0.021854

  Mayer bond orders larger than 0.1
B(  0-C ,  1-C ) :   1.0149 B(  0-C ,  5-C ) :   0.9973 B(  0-C ,  6-C ) :   1.0584
B(  0-C , 14-H ) :   0.9529 B(  1-C ,  2-C ) :   1.0547 B(  1-C , 11-H ) :   0.9703
B(  1-C , 12-H ) :   0.9609 B(  2-C ,  3-C ) :   1.0264 B(  2-C ,  7-H ) :   0.9621
B(  2-C ,  8-H ) :   0.9659 B(  3-C ,  4-S ) :   1.0087 B(  3-C ,  9-H ) :   0.9636
B(  3-C , 10-H ) :   0.9744 B(  4-S ,  5-C ) :   1.0157 B(  5-C , 13-H ) :   0.9614
B(  5-C , 15-H ) :   0.9723 B(  6-C , 16-H ) :   0.9756 B(  6-C , 17-H ) :   0.9798
B(  6-C , 18-H ) :   0.9807

E(0)                                       ...   -631.749911620
E(0)                                       ...   -631.749911620
E(CORR)(strong-pairs)                      ...     -1.074973463
E(CORR)(weak-pairs)                        ...     -0.000453616
E(CORR)(corrected)                         ...     -1.075427079
E(TOT)                                     ...   -632.825338699
E(CCSD(T))                                 ...   -632.859352621
FINAL SINGLE POINT ENERGY      -632.859352620727

DIPOLE MOMENT
-------------
                                X             Y             Z
Electronic contribution:      7.30810      -4.46020      -1.33010
Nuclear contribution   :     -7.79939       4.99474       1.53726
                        -----------------------------------------
Total Dipole Moment    :     -0.49129       0.53454       0.20717
                        -----------------------------------------
Magnitude (a.u.)       :      0.75499
Magnitude (Debye)      :      1.91904

Rotational constants in cm-1:     0.108831     0.059721     0.041763
Rotational constants in MHz :  3262.669010  1790.376219  1252.016853

                             ****ORCA TERMINATED NORMALLY****
TOTAL RUN TIME: 0 days 0 hours 2 minutes 35 seconds 916 msec
