                         Program Version 4.1.x  -  STABLE  -
|  1> ! RHF DLPNO-CCSD(T) cc-pVDZ RIJK cc-pVTZ/JK cc-pVDZ/C
|  2> ! KDIIS SOSCF TightSCF TightPNO
|  3>
|  4> %pal nprocs 4 end
|  5>
|  6> %maxcore 8000
|  7>
|  8> %scf maxiter 300
|  9>      shift shift 0.2 erroff 0.1 end
| 10> end
| 11>
| 12> * xyzfile 0 1 3_methylpiperidine_eq.xyz
| 13>
| 14>
| 15>                          ****END OF INPUT****

CARTESIAN COORDINATES (ANGSTROEM)
---------------------------------
  C      0.271540    1.270590    0.160640
  C      1.008750    0.015080   -0.341850
  C      0.266590   -1.242580    0.138070
  N     -1.132650   -1.206280   -0.294620
  C     -1.865810   -0.070760    0.270570
  C     -1.222420    1.237680   -0.199850
  C      2.478940    0.000980    0.090850
  H     -1.596910   -2.079870   -0.065050
  H      0.736480   -2.139740   -0.281480
  H     -1.871840   -0.088460    1.379510
  H     -2.907670   -0.128290   -0.063390
  H      0.964700    0.012010   -1.440410
  H     -1.743680    2.091270    0.250800
  H     -1.342100    1.316540   -1.287880
  H      0.379310    1.329190    1.254890
  H      0.744230    2.173070   -0.247850
  H      0.361800   -1.306050    1.242090
  H      3.002600   -0.880590   -0.297420
  H      3.005280    0.889330   -0.276280
  H      2.570760   -0.010340    1.184270

 Total Charge           Charge          ....    0
 Multiplicity           Mult            ....    1
 Number of Electrons    NEL             ....   56
 Basis Dimension        Dim             ....  163

ORBITAL ENERGIES
----------------

  NO   OCC          E(Eh)            E(eV)
   0   2.0000     -15.535573      -422.7444
   1   2.0000     -11.246459      -306.0317
   2   2.0000     -11.245203      -305.9975
   3   2.0000     -11.222396      -305.3769
   4   2.0000     -11.219188      -305.2896
   5   2.0000     -11.218216      -305.2632
   6   2.0000     -11.217707      -305.2493
   7   2.0000      -1.203615       -32.7520
   8   2.0000      -1.068467       -29.0745
   9   2.0000      -1.021788       -27.8043
  10   2.0000      -0.922014       -25.0893
  11   2.0000      -0.859646       -23.3922
  12   2.0000      -0.810651       -22.0589
  13   2.0000      -0.746954       -20.3257
  14   2.0000      -0.669453       -18.2167
  15   2.0000      -0.617169       -16.7940
  16   2.0000      -0.611323       -16.6349
  17   2.0000      -0.586880       -15.9698
  18   2.0000      -0.573868       -15.6157
  19   2.0000      -0.547143       -14.8885
  20   2.0000      -0.535455       -14.5705
  21   2.0000      -0.514820       -14.0090
  22   2.0000      -0.502887       -13.6843
  23   2.0000      -0.472968       -12.8701
  24   2.0000      -0.455483       -12.3943
  25   2.0000      -0.436504       -11.8779
  26   2.0000      -0.431836       -11.7509
  27   2.0000      -0.359059        -9.7705
  28   0.0000       0.181696         4.9442
  29   0.0000       0.198167         5.3924
  30   0.0000       0.205982         5.6051
  31   0.0000       0.215085         5.8528
  32   0.0000       0.248525         6.7627

MULLIKEN ATOMIC CHARGES
-----------------------
   0 C :   -0.024990
   1 C :   -0.207098
   2 C :    0.155837
   3 N :   -0.371001
   4 C :    0.100748
   5 C :   -0.019332
   6 C :    0.018441
   7 H :    0.093963
   8 H :    0.023808
   9 H :    0.003731
  10 H :    0.025293
  11 H :    0.022881
  12 H :    0.020914
  13 H :    0.031153
  14 H :    0.017794
  15 H :    0.024570
  16 H :    0.000683
  17 H :    0.028106
  18 H :    0.029233
  19 H :    0.025267
Sum of atomic charges:   -0.0000000

LOEWDIN ATOMIC CHARGES
----------------------
   0 C :   -0.028890
   1 C :   -0.045230
   2 C :   -0.006440
   3 N :   -0.041304
   4 C :   -0.011729
   5 C :   -0.032996
   6 C :   -0.044359
   7 H :    0.034649
   8 H :    0.015882
   9 H :   -0.003391
  10 H :    0.016851
  11 H :    0.018812
  12 H :    0.019245
  13 H :    0.019774
  14 H :    0.014182
  15 H :    0.018211
  16 H :   -0.004230
  17 H :    0.020637
  18 H :    0.021882
  19 H :    0.018445

  Mayer bond orders larger than 0.1
B(  0-C ,  1-C ) :   1.0190 B(  0-C ,  5-C ) :   1.0558 B(  0-C , 14-H ) :   0.9603
B(  0-C , 15-H ) :   0.9707 B(  1-C ,  2-C ) :   1.0207 B(  1-C ,  6-C ) :   1.0619
B(  1-C , 11-H ) :   0.9507 B(  2-C ,  3-N ) :   1.0310 B(  2-C ,  8-H ) :   0.9704
B(  2-C , 16-H ) :   0.9558 B(  3-N ,  4-C ) :   1.0204 B(  3-N ,  7-H ) :   0.9698
B(  4-C ,  5-C ) :   1.0461 B(  4-C ,  9-H ) :   0.9591 B(  4-C , 10-H ) :   0.9752
B(  5-C , 12-H ) :   0.9710 B(  5-C , 13-H ) :   0.9596 B(  6-C , 17-H ) :   0.9803
B(  6-C , 18-H ) :   0.9795 B(  6-C , 19-H ) :   0.9745

E(0)                                       ...   -289.246437055
E(0)                                       ...   -289.246437055
E(CORR)(strong-pairs)                      ...     -1.107904410
E(CORR)(weak-pairs)                        ...     -0.000465537
E(CORR)(corrected)                         ...     -1.108369948
E(TOT)                                     ...   -290.354807002
E(CCSD(T))                                 ...   -290.388384746
FINAL SINGLE POINT ENERGY      -290.388384745880

DIPOLE MOMENT
-------------
                                X             Y             Z
Electronic contribution:     -2.47841      -1.32557      -1.13914
Nuclear contribution   :      2.43513       1.24176       1.43167
                        -----------------------------------------
Total Dipole Moment    :     -0.04328      -0.08381       0.29253
                        -----------------------------------------
Magnitude (a.u.)       :      0.30736
Magnitude (Debye)      :      0.78126

Rotational constants in cm-1:     0.144136     0.074149     0.053704
Rotational constants in MHz :  4321.081512  2222.919050  1609.993327

                             ****ORCA TERMINATED NORMALLY****
TOTAL RUN TIME: 0 days 0 hours 2 minutes 47 seconds 110 msec
