                         Program Version 4.1.x  -  STABLE  -
|  1> ! RHF DLPNO-CCSD(T) cc-pVDZ RIJK cc-pVTZ/JK cc-pVDZ/C
|  2> ! KDIIS SOSCF TightSCF TightPNO
|  3>
|  4> %pal nprocs 4 end
|  5>
|  6> %maxcore 8000
|  7>
|  8> %scf maxiter 300
|  9>      shift shift 0.2 erroff 0.1 end
| 10> end
| 11>
| 12> * xyzfile 0 1 3_methylpiperidine_ax.xyz
| 13>
| 14>
| 15>                          ****END OF INPUT****

CARTESIAN COORDINATES (ANGSTROEM)
---------------------------------
  C      0.224740    1.269130    0.625570
  C      1.114450    0.011900    0.492410
  C      0.227590   -1.243480    0.607710
  N     -0.847310   -1.204600   -0.388270
  C     -1.756520   -0.074290   -0.180250
  C     -0.979870    1.238930   -0.330620
  C      1.954490    0.007920   -0.794440
  H     -1.360240   -2.080820   -0.391080
  H      0.825350   -2.146450    0.437700
  H     -2.227210   -0.099610    0.824170
  H     -2.561800   -0.132360   -0.920830
  H      1.806750   -0.001080    1.346080
  H     -1.643890    2.088040   -0.126890
  H     -0.643970    1.333700   -1.370070
  H     -0.148670    1.326570    1.658290
  H      0.822860    2.174000    0.459320
  H     -0.169950   -1.299460    1.641180
  H      2.564080    0.916290   -0.866430
  H      2.634990   -0.851650   -0.810590
  H      1.323620   -0.055710   -1.685180

 Total Charge           Charge          ....    0
 Multiplicity           Mult            ....    1
 Number of Electrons    NEL             ....   56
 Basis Dimension        Dim             ....  163

ORBITAL ENERGIES
----------------

  NO   OCC          E(Eh)            E(eV)
   0   2.0000     -15.536052      -422.7575
   1   2.0000     -11.246850      -306.0423
   2   2.0000     -11.245575      -306.0077
   3   2.0000     -11.223422      -305.4048
   4   2.0000     -11.219226      -305.2907
   5   2.0000     -11.217983      -305.2568
   6   2.0000     -11.209657      -305.0303
   7   2.0000      -1.203934       -32.7607
   8   2.0000      -1.064685       -28.9715
   9   2.0000      -1.019358       -27.7381
  10   2.0000      -0.920224       -25.0406
  11   2.0000      -0.858450       -23.3596
  12   2.0000      -0.820337       -22.3225
  13   2.0000      -0.723741       -19.6940
  14   2.0000      -0.681394       -18.5417
  15   2.0000      -0.618771       -16.8376
  16   2.0000      -0.602358       -16.3910
  17   2.0000      -0.588476       -16.0132
  18   2.0000      -0.570363       -15.5204
  19   2.0000      -0.552127       -15.0242
  20   2.0000      -0.538381       -14.6501
  21   2.0000      -0.509526       -13.8649
  22   2.0000      -0.496989       -13.5238
  23   2.0000      -0.473306       -12.8793
  24   2.0000      -0.454651       -12.3717
  25   2.0000      -0.432949       -11.7811
  26   2.0000      -0.431049       -11.7294
  27   2.0000      -0.358296        -9.7497
  28   0.0000       0.175033         4.7629
  29   0.0000       0.208876         5.6838
  30   0.0000       0.211625         5.7586
  31   0.0000       0.220302         5.9947
  32   0.0000       0.241042         6.5591

MULLIKEN ATOMIC CHARGES
-----------------------
   0 C :   -0.017685
   1 C :   -0.190352
   2 C :    0.145740
   3 N :   -0.367879
   4 C :    0.100232
   5 C :   -0.030209
   6 C :    0.014602
   7 H :    0.094916
   8 H :    0.021864
   9 H :    0.002783
  10 H :    0.024877
  11 H :    0.009519
  12 H :    0.021541
  13 H :    0.033315
  14 H :    0.019773
  15 H :    0.022849
  16 H :    0.006185
  17 H :    0.022591
  18 H :    0.023671
  19 H :    0.041669
Sum of atomic charges:   -0.0000000

LOEWDIN ATOMIC CHARGES
----------------------
   0 C :   -0.027807
   1 C :   -0.043770
   2 C :   -0.005895
   3 N :   -0.041044
   4 C :   -0.011368
   5 C :   -0.034312
   6 C :   -0.045486
   7 H :    0.034568
   8 H :    0.015042
   9 H :   -0.003421
  10 H :    0.016532
  11 H :    0.018128
  12 H :    0.019461
  13 H :    0.019221
  14 H :    0.016287
  15 H :    0.017440
  16 H :   -0.001913
  17 H :    0.018008
  18 H :    0.019372
  19 H :    0.020956

  Mayer bond orders larger than 0.1
B(  0-C ,  1-C ) :   1.0393 B(  0-C ,  5-C ) :   1.0402 B(  0-C , 14-H ) :   0.9652
B(  0-C , 15-H ) :   0.9718 B(  1-C ,  2-C ) :   1.0278 B(  1-C ,  6-C ) :   1.0304
B(  1-C , 11-H ) :   0.9642 B(  2-C ,  3-N ) :   1.0172 B(  2-C ,  8-H ) :   0.9725
B(  2-C , 16-H ) :   0.9632 B(  3-N ,  4-C ) :   1.0221 B(  3-N ,  7-H ) :   0.9709
B(  4-C ,  5-C ) :   1.0435 B(  4-C ,  9-H ) :   0.9597 B(  4-C , 10-H ) :   0.9754
B(  5-C , 12-H ) :   0.9725 B(  5-C , 13-H ) :   0.9637 B(  6-C , 17-H ) :   0.9813
B(  6-C , 18-H ) :   0.9815 B(  6-C , 19-H ) :   0.9760

E(0)                                       ...   -289.243908901
E(0)                                       ...   -289.243908901
E(CORR)(strong-pairs)                      ...     -1.108793801
E(CORR)(weak-pairs)                        ...     -0.000470720
E(CORR)(corrected)                         ...     -1.109264521
E(TOT)                                     ...   -290.353173423
E(CCSD(T))                                 ...   -290.386848772
FINAL SINGLE POINT ENERGY      -290.386848772123

DIPOLE MOMENT
-------------
                                X             Y             Z
Electronic contribution:     -1.48689      -1.33756       0.07516
Nuclear contribution   :      1.29050       1.23479       0.20507
                        -----------------------------------------
Total Dipole Moment    :     -0.19639      -0.10276       0.28023
                        -----------------------------------------
Magnitude (a.u.)       :      0.35729
Magnitude (Debye)      :      0.90817

Rotational constants in cm-1:     0.119739     0.085822     0.065034
Rotational constants in MHz :  3589.696304  2572.887614  1949.682171

                             ****ORCA TERMINATED NORMALLY****
TOTAL RUN TIME: 0 days 0 hours 2 minutes 37 seconds 674 msec
