                         Program Version 4.1.x  -  STABLE  -
|  1> ! RHF DLPNO-CCSD(T) cc-pVDZ RIJK cc-pVTZ/JK cc-pVDZ/C
|  2> ! KDIIS SOSCF TightSCF TightPNO
|  3>
|  4> %pal nprocs 4 end
|  5>
|  6> %maxcore 8000
|  7>
|  8> %scf maxiter 300
|  9>      shift shift 0.2 erroff 0.1 end
| 10> end
| 11>
| 12> * xyzfile 0 1 3_OH_hexahydropyrimidine_HB.xyz
| 13>
| 14>
| 15>                          ****END OF INPUT****

CARTESIAN COORDINATES (ANGSTROEM)
---------------------------------
  C      1.666200    0.021450   -0.115410
  N      0.785680    1.183970   -0.345660
  C     -0.299980    1.217730    0.643500
  C     -1.147970   -0.042420    0.413850
  C     -0.253710   -1.288150    0.569820
  N      0.957070   -1.236140   -0.261150
  O     -1.741640    0.003810   -0.884880
  H     -1.085270    0.422770   -1.465320
  H      0.708880   -1.381580   -1.236680
  H      1.315700    2.051290   -0.347570
  H     -1.974130   -0.083990    1.133070
  H      0.071780    1.228750    1.684990
  H     -0.907960    2.114220    0.486670
  H     -0.821030   -2.186010    0.308320
  H      0.054180   -1.382350    1.621190
  H      2.491160    0.058160   -0.832730
  H      2.093260    0.041760    0.904150

 Total Charge           Charge          ....    0
 Multiplicity           Mult            ....    1
 Number of Electrons    NEL             ....   56
 Basis Dimension        Dim             ....  148

ORBITAL ENERGIES
----------------

  NO   OCC          E(Eh)            E(eV)
   0   2.0000     -20.541115      -558.9521
   1   2.0000     -15.554700      -423.2649
   2   2.0000     -15.544656      -422.9916
   3   2.0000     -11.285149      -307.0845
   4   2.0000     -11.274501      -306.7948
   5   2.0000     -11.258875      -306.3696
   6   2.0000     -11.249659      -306.1188
   7   2.0000      -1.347848       -36.6768
   8   2.0000      -1.244185       -33.8560
   9   2.0000      -1.158016       -31.5112
  10   2.0000      -1.021084       -27.7851
  11   2.0000      -0.891523       -24.2596
  12   2.0000      -0.874928       -23.8080
  13   2.0000      -0.779156       -21.2019
  14   2.0000      -0.707565       -19.2538
  15   2.0000      -0.664609       -18.0849
  16   2.0000      -0.636953       -17.3324
  17   2.0000      -0.626045       -17.0355
  18   2.0000      -0.599156       -16.3039
  19   2.0000      -0.591653       -16.0997
  20   2.0000      -0.566318       -15.4103
  21   2.0000      -0.538144       -14.6436
  22   2.0000      -0.509484       -13.8638
  23   2.0000      -0.493824       -13.4376
  24   2.0000      -0.464370       -12.6361
  25   2.0000      -0.449738       -12.2380
  26   2.0000      -0.383981       -10.4487
  27   2.0000      -0.364780        -9.9262
  28   0.0000       0.176068         4.7911
  29   0.0000       0.197130         5.3642
  30   0.0000       0.215954         5.8764
  31   0.0000       0.224806         6.1173
  32   0.0000       0.241655         6.5758

MULLIKEN ATOMIC CHARGES
-----------------------
   0 C :    0.254754
   1 N :   -0.406302
   2 C :    0.090104
   3 C :    0.138676
   4 C :    0.132281
   5 N :   -0.377796
   6 O :   -0.402649
   7 H :    0.170242
   8 H :    0.100063
   9 H :    0.101702
  10 H :    0.022613
  11 H :    0.015605
  12 H :    0.038788
  13 H :    0.041400
  14 H :    0.024703
  15 H :    0.035961
  16 H :    0.019856
Sum of atomic charges:   -0.0000000

LOEWDIN ATOMIC CHARGES
----------------------
   0 C :    0.001667
   1 N :   -0.057292
   2 C :   -0.019340
   3 C :   -0.006035
   4 C :   -0.014616
   5 N :   -0.031721
   6 O :   -0.084003
   7 H :    0.037025
   8 H :    0.036193
   9 H :    0.037248
  10 H :    0.017919
  11 H :    0.004239
  12 H :    0.019877
  13 H :    0.023199
  14 H :    0.016154
  15 H :    0.017608
  16 H :    0.001879

  Mayer bond orders larger than 0.1
B(  0-C ,  1-N ) :   0.9901 B(  0-C ,  5-N ) :   1.0544 B(  0-C , 15-H ) :   0.9800
B(  0-C , 16-H ) :   0.9637 B(  1-N ,  2-C ) :   1.0164 B(  1-N ,  9-H ) :   0.9682
B(  2-C ,  3-C ) :   1.0262 B(  2-C , 11-H ) :   0.9617 B(  2-C , 12-H ) :   0.9732
B(  3-C ,  4-C ) :   1.0053 B(  3-C ,  6-O ) :   0.9750 B(  3-C , 10-H ) :   0.9713
B(  4-C ,  5-N ) :   1.0245 B(  4-C , 13-H ) :   0.9756 B(  4-C , 14-H ) :   0.9640
B(  5-N ,  8-H ) :   0.9683 B(  6-O ,  7-H ) :   0.9858

E(0)                                       ...   -341.058561233
E(0)                                       ...   -341.058561233
E(CORR)(strong-pairs)                      ...     -1.149480933
E(CORR)(weak-pairs)                        ...     -0.000483231
E(CORR)(corrected)                         ...     -1.149964164
E(TOT)                                     ...   -342.208525397
E(CCSD(T))                                 ...   -342.242015288
FINAL SINGLE POINT ENERGY      -342.242015288167

DIPOLE MOMENT
-------------
                                X             Y             Z
Electronic contribution:     -1.37062      -0.27434      -1.97268
Nuclear contribution   :      1.98669       0.90901       2.30511
                        -----------------------------------------
Total Dipole Moment    :      0.61607       0.63468       0.33244
                        -----------------------------------------
Magnitude (a.u.)       :      0.94492
Magnitude (Debye)      :      2.40179

Rotational constants in cm-1:     0.123504     0.094020     0.070667
Rotational constants in MHz :  3702.562370  2818.634642  2118.533836

                             ****ORCA TERMINATED NORMALLY****
TOTAL RUN TIME: 0 days 0 hours 2 minutes 38 seconds 46 msec
