                         Program Version 4.1.x  -  STABLE  -
|  1> ! RHF DLPNO-CCSD(T) cc-pVDZ RIJK cc-pVTZ/JK cc-pVDZ/C
|  2> ! KDIIS SOSCF TightSCF TightPNO
|  3>
|  4> %pal nprocs 4 end
|  5>
|  6> %maxcore 8000
|  7>
|  8> %scf maxiter 300
|  9>      shift shift 0.2 erroff 0.1 end
| 10> end
| 11>
| 12> * xyzfile 0 1 3_OH_hexahydropyrimidine.xyz
| 13>
| 14>
| 15>                          ****END OF INPUT****

CARTESIAN COORDINATES (ANGSTROEM)
---------------------------------
  C     -1.695520    0.032110   -0.126110
  N     -0.962970   -1.226200   -0.278830
  C      0.224060   -1.267150    0.578990
  C      1.122080   -0.028530    0.442510
  C      0.271080    1.247180    0.592950
  N     -0.912420    1.264900   -0.269580
  O      1.725130   -0.103450   -0.860110
  H      2.332380    0.639400   -0.972520
  H     -0.618710    1.365580   -1.239010
  H     -0.677490   -1.342520   -1.248620
  H      1.903870   -0.053630    1.218160
  H     -0.107700   -1.342960    1.623610
  H      0.801660   -2.168200    0.350660
  H      0.875720    2.140270    0.388300
  H     -0.062270    1.324740    1.637800
  H     -2.515740    0.053010   -0.849210
  H     -2.135130    0.039350    0.880470

 Total Charge           Charge          ....    0
 Multiplicity           Mult            ....    1
 Number of Electrons    NEL             ....   56
 Basis Dimension        Dim             ....  148

ORBITAL ENERGIES
----------------

  NO   OCC          E(Eh)            E(eV)
   0   2.0000     -20.557674      -559.4028
   1   2.0000     -15.540482      -422.8780
   2   2.0000     -15.537024      -422.7839
   3   2.0000     -11.279099      -306.9199
   4   2.0000     -11.273791      -306.7755
   5   2.0000     -11.255606      -306.2806
   6   2.0000     -11.250485      -306.1413
   7   2.0000      -1.358122       -36.9564
   8   2.0000      -1.236752       -33.6537
   9   2.0000      -1.149985       -31.2927
  10   2.0000      -1.022205       -27.8156
  11   2.0000      -0.889224       -24.1970
  12   2.0000      -0.869982       -23.6734
  13   2.0000      -0.785943       -21.3866
  14   2.0000      -0.693969       -18.8839
  15   2.0000      -0.671800       -18.2806
  16   2.0000      -0.649563       -17.6755
  17   2.0000      -0.623637       -16.9700
  18   2.0000      -0.602248       -16.3880
  19   2.0000      -0.566250       -15.4084
  20   2.0000      -0.538416       -14.6510
  21   2.0000      -0.532902       -14.5010
  22   2.0000      -0.508347       -13.8328
  23   2.0000      -0.500690       -13.6245
  24   2.0000      -0.483786       -13.1645
  25   2.0000      -0.455939       -12.4067
  26   2.0000      -0.394085       -10.7236
  27   2.0000      -0.344548        -9.3756
  28   0.0000       0.168915         4.5964
  29   0.0000       0.194183         5.2840
  30   0.0000       0.214192         5.8285
  31   0.0000       0.230218         6.2646
  32   0.0000       0.242833         6.6078

MULLIKEN ATOMIC CHARGES
-----------------------
   0 C :    0.233157
   1 N :   -0.378733
   2 C :    0.136920
   3 C :    0.101982
   4 C :    0.117809
   5 N :   -0.374839
   6 O :   -0.394135
   7 H :    0.163647
   8 H :    0.094246
   9 H :    0.100555
  10 H :    0.008908
  11 H :    0.028016
  12 H :    0.040523
  13 H :    0.020154
  14 H :    0.030219
  15 H :    0.036048
  16 H :    0.035521
Sum of atomic charges:   -0.0000000

LOEWDIN ATOMIC CHARGES
----------------------
   0 C :   -0.005040
   1 N :   -0.041748
   2 C :   -0.010967
   3 C :   -0.015229
   4 C :   -0.023077
   5 N :   -0.044071
   6 O :   -0.087996
   7 H :    0.045021
   8 H :    0.031318
   9 H :    0.034899
  10 H :    0.007077
  11 H :    0.018217
  12 H :    0.023344
  13 H :    0.014301
  14 H :    0.019788
  15 H :    0.018828
  16 H :    0.015336

  Mayer bond orders larger than 0.1
B(  0-C ,  1-N ) :   1.0333 B(  0-C ,  5-N ) :   1.0259 B(  0-C , 15-H ) :   0.9820
B(  0-C , 16-H ) :   0.9690 B(  1-N ,  2-C ) :   1.0361 B(  1-N ,  9-H ) :   0.9686
B(  2-C ,  3-C ) :   1.0133 B(  2-C , 11-H ) :   0.9693 B(  2-C , 12-H ) :   0.9763
B(  3-C ,  4-C ) :   1.0050 B(  3-C ,  6-O ) :   0.9598 B(  3-C , 10-H ) :   0.9662
B(  4-C ,  5-N ) :   1.0364 B(  4-C , 13-H ) :   0.9774 B(  4-C , 14-H ) :   0.9647
B(  5-N ,  8-H ) :   0.9688 B(  6-O ,  7-H ) :   1.0001

E(0)                                       ...   -341.057468229
E(0)                                       ...   -341.057468229
E(CORR)(strong-pairs)                      ...     -1.148463546
E(CORR)(weak-pairs)                        ...     -0.000467190
E(CORR)(corrected)                         ...     -1.148930736
E(TOT)                                     ...   -342.206398965
E(CCSD(T))                                 ...   -342.239753293
FINAL SINGLE POINT ENERGY      -342.239753292892

DIPOLE MOMENT
-------------
                                X             Y             Z
Electronic contribution:      0.84076      -0.23967      -1.74348
Nuclear contribution   :     -0.19280       0.67306       1.82556
                        -----------------------------------------
Total Dipole Moment    :      0.64796       0.43339       0.08208
                        -----------------------------------------
Magnitude (a.u.)       :      0.78385
Magnitude (Debye)      :      1.99238

Rotational constants in cm-1:     0.123938     0.091991     0.068937
Rotational constants in MHz :  3715.572258  2757.812012  2066.674787

                             ****ORCA TERMINATED NORMALLY****
TOTAL RUN TIME: 0 days 0 hours 2 minutes 22 seconds 759 msec
