                         Program Version 4.1.x  -  STABLE  -
|  1> ! RHF DLPNO-CCSD(T) cc-pVDZ RIJK cc-pVTZ/JK cc-pVDZ/C
|  2> ! KDIIS SOSCF TightSCF TightPNO
|  3>
|  4> %pal nprocs 4 end
|  5>
|  6> %maxcore 8000
|  7>
|  8> %scf maxiter 300
|  9>      shift shift 0.2 erroff 0.1 end
| 10> end
| 11>
| 12> * xyzfile 0 1 3b_aminotropane_1c.xyz
| 13>
| 14>
| 15>                          ****END OF INPUT****

CARTESIAN COORDINATES (ANGSTROEM)
---------------------------------
  C     -1.146730   -1.508730   -0.779900
  C     -0.765650   -0.054270   -1.151280
  N     -1.322820    0.677030   -0.000030
  C     -0.765620   -0.054160    1.151280
  C     -1.146690   -1.508660    0.780040
  C      0.765050    0.140000    1.271580
  C      1.501660   -0.325280    0.000010
  C      0.765050    0.139820   -1.271610
  C     -1.218080    2.127240   -0.000080
  N      2.875240    0.206210   -0.000020
  H     -1.254690    0.279890   -2.073890
  H     -1.254640    0.280070    2.073890
  H      1.143010   -0.409330   -2.145390
  H      0.994350    1.198860   -1.441340
  H      0.994310    1.199070    1.441140
  H      1.143040   -0.409010    2.145420
  H      1.501280   -1.428480    0.000100
  H     -0.191150    2.528740   -0.000160
  H     -1.731650    2.520770   -0.884350
  H     -1.731540    2.520830    0.884220
  H      3.386080   -0.119790    0.818110
  H      3.386140   -0.120050   -0.818020
  H     -2.143310   -1.741400    1.165060
  H     -0.449330   -2.238520    1.204190
  H     -2.143370   -1.741500   -1.164840
  H     -0.449410   -2.238650   -1.204020

 Total Charge           Charge          ....    0
 Multiplicity           Mult            ....    1
 Number of Electrons    NEL             ....   78
 Basis Dimension        Dim             ....  220

ORBITAL ENERGIES
----------------

  NO   OCC          E(Eh)            E(eV)
   0   2.0000     -15.535923      -422.7540
   1   2.0000     -15.533609      -422.6910
   2   2.0000     -11.251263      -306.1624
   3   2.0000     -11.248917      -306.0986
   4   2.0000     -11.248896      -306.0980
   5   2.0000     -11.242626      -305.9274
   6   2.0000     -11.219744      -305.3048
   7   2.0000     -11.219215      -305.2904
   8   2.0000     -11.214911      -305.1733
   9   2.0000     -11.214895      -305.1728
  10   2.0000      -1.238430       -33.6994
  11   2.0000      -1.171571       -31.8801
  12   2.0000      -1.050954       -28.5979
  13   2.0000      -1.017491       -27.6873
  14   2.0000      -0.999470       -27.1970
  15   2.0000      -0.905799       -24.6481
  16   2.0000      -0.874948       -23.8086
  17   2.0000      -0.810375       -22.0514
  18   2.0000      -0.773595       -21.0506
  19   2.0000      -0.714187       -19.4340
  20   2.0000      -0.672398       -18.2969
  21   2.0000      -0.654672       -17.8145
  22   2.0000      -0.637372       -17.3438
  23   2.0000      -0.613546       -16.6954
  24   2.0000      -0.590105       -16.0576
  25   2.0000      -0.579568       -15.7709
  26   2.0000      -0.562644       -15.3103
  27   2.0000      -0.549774       -14.9601
  28   2.0000      -0.531875       -14.4731
  29   2.0000      -0.512751       -13.9527
  30   2.0000      -0.506269       -13.7763
  31   2.0000      -0.492749       -13.4084
  32   2.0000      -0.488909       -13.3039
  33   2.0000      -0.459163       -12.4945
  34   2.0000      -0.444196       -12.0872
  35   2.0000      -0.437252       -11.8982
  36   2.0000      -0.435194       -11.8422
  37   2.0000      -0.380492       -10.3537
  38   2.0000      -0.334381        -9.0990
  39   0.0000       0.176710         4.8085
  40   0.0000       0.186055         5.0628
  41   0.0000       0.204272         5.5585
  42   0.0000       0.210732         5.7343
  43   0.0000       0.223889         6.0923

MULLIKEN ATOMIC CHARGES
-----------------------
   0 C :    0.029933
   1 C :   -0.006983
   2 N :   -0.475449
   3 C :   -0.006995
   4 C :    0.029927
   5 C :    0.063685
   6 C :   -0.058717
   7 C :    0.063678
   8 C :    0.121500
   9 N :   -0.250694
  10 H :    0.008073
  11 H :    0.008075
  12 H :    0.019088
  13 H :    0.033376
  14 H :    0.033374
  15 H :    0.019086
  16 H :    0.009801
  17 H :    0.016629
  18 H :    0.029163
  19 H :    0.029163
  20 H :    0.088638
  21 H :    0.088640
  22 H :    0.033083
  23 H :    0.020422
  24 H :    0.033081
  25 H :    0.020422
Sum of atomic charges:   -0.0000000

LOEWDIN ATOMIC CHARGES
----------------------
   0 C :   -0.020493
   1 C :   -0.011508
   2 N :   -0.028366
   3 C :   -0.011512
   4 C :   -0.020493
   5 C :   -0.033786
   6 C :   -0.025044
   7 C :   -0.033788
   8 C :   -0.025504
   9 N :   -0.058039
  10 H :    0.012834
  11 H :    0.012835
  12 H :    0.015067
  13 H :    0.019037
  14 H :    0.019037
  15 H :    0.015066
  16 H :    0.000084
  17 H :   -0.000184
  18 H :    0.019580
  19 H :    0.019580
  20 H :    0.034594
  21 H :    0.034598
  22 H :    0.020915
  23 H :    0.012287
  24 H :    0.020914
  25 H :    0.012288

  Mayer bond orders larger than 0.1
B(  0-C ,  1-C ) :   1.0303 B(  0-C ,  4-C ) :   1.0353 B(  0-C , 24-H ) :   0.9654
B(  0-C , 25-H ) :   0.9725 B(  1-C ,  2-N ) :   0.9812 B(  1-C ,  7-C ) :   1.0246
B(  1-C , 10-H ) :   0.9757 B(  2-N ,  3-C ) :   0.9812 B(  2-N ,  8-C ) :   1.0083
B(  3-C ,  4-C ) :   1.0303 B(  3-C ,  5-C ) :   1.0246 B(  3-C , 11-H ) :   0.9757
B(  4-C , 22-H ) :   0.9654 B(  4-C , 23-H ) :   0.9725 B(  5-C ,  6-C ) :   1.0105
B(  5-C , 14-H ) :   0.9578 B(  5-C , 15-H ) :   0.9627 B(  6-C ,  7-C ) :   1.0105
B(  6-C ,  9-N ) :   1.0525 B(  6-C , 16-H ) :   0.9566 B(  7-C , 12-H ) :   0.9627
B(  7-C , 13-H ) :   0.9578 B(  8-C , 17-H ) :   0.9705 B(  8-C , 18-H ) :   0.9871
B(  8-C , 19-H ) :   0.9871 B(  9-N , 20-H ) :   0.9824 B(  9-N , 21-H ) :   0.9824

E(0)                                       ...   -421.170148485
E(0)                                       ...   -421.170148485
E(CORR)(strong-pairs)                      ...     -1.569046275
E(CORR)(weak-pairs)                        ...     -0.000995427
E(CORR)(corrected)                         ...     -1.570041702
E(TOT)                                     ...   -422.740190188
E(CCSD(T))                                 ...   -422.790838263
FINAL SINGLE POINT ENERGY      -422.790838263122

DIPOLE MOMENT
-------------
                                X             Y             Z
Electronic contribution:     -0.95297      -0.50992      -0.00004
Nuclear contribution   :      1.26217       0.09057       0.00012
                        -----------------------------------------
Total Dipole Moment    :      0.30919      -0.41935       0.00008
                        -----------------------------------------
Magnitude (a.u.)       :      0.52101
Magnitude (Debye)      :      1.32431

Rotational constants in cm-1:     0.061345     0.041125     0.037240
Rotational constants in MHz :  1839.082036  1232.890791  1116.422594

                             ****ORCA TERMINATED NORMALLY****
TOTAL RUN TIME: 0 days 0 hours 8 minutes 59 seconds 733 msec
