                         Program Version 4.1.x  -  STABLE  -
|  1> ! RHF DLPNO-CCSD(T) cc-pVDZ RIJK cc-pVTZ/JK cc-pVDZ/C
|  2> ! KDIIS SOSCF TightSCF TightPNO
|  3>
|  4> %pal nprocs 4 end
|  5>
|  6> %maxcore 8000
|  7>
|  8> %scf maxiter 300
|  9>      shift shift 0.2 erroff 0.1 end
| 10> end
| 11>
| 12> * xyzfile 2 1 3b_aminotropane_3a.xyz
| 13>
| 14>
| 15>                          ****END OF INPUT****

CARTESIAN COORDINATES (ANGSTROEM)
---------------------------------
  N     -1.143700   -0.000200   -0.840100
  C     -0.605300   -1.185100   -0.032000
  C     -0.605200    1.185100   -0.032300
  C      0.912800   -1.277000   -0.298100
  C      0.912800    1.276900   -0.298400
  C      1.621800    0.000000    0.188500
  C     -2.644600   -0.000200   -1.027500
  N      3.085300   -0.000100   -0.260200
  C     -0.968600    0.780900    1.413300
  C     -0.968600   -0.780400    1.413500
  H     -1.098600   -2.096600   -0.374700
  H     -1.098500    2.096500   -0.375400
  H      1.294100   -2.162900    0.220800
  H      1.088700   -1.437400   -1.371500
  H      1.088700    1.437000   -1.371900
  H      1.294200    2.163000    0.220200
  H      1.681700    0.000200    1.279800
  H     -3.137000    0.000100   -0.057200
  H     -2.920200    0.893800   -1.588500
  H     -2.920200   -0.894400   -1.588000
  H      3.587900    0.826200    0.091300
  H      3.587800   -0.826200    0.091600
  H     -1.948200    1.176500    1.688400
  H     -0.259500    1.209200    2.125900
  H     -1.948200   -1.176000    1.688700
  H     -0.259500   -1.208600    2.126300
  H     -0.738900   -0.000300   -1.781700
  H      3.183700   -0.000200   -1.283800

 Total Charge           Charge          ....    2
 Multiplicity           Mult            ....    1
 Number of Electrons    NEL             ....   78
 Basis Dimension        Dim             ....  230

ORBITAL ENERGIES
----------------

  NO   OCC          E(Eh)            E(eV)
   0   2.0000     -16.020784      -435.9477
   1   2.0000     -15.979187      -434.8158
   2   2.0000     -11.626296      -316.3676
   3   2.0000     -11.595303      -315.5242
   4   2.0000     -11.595276      -315.5235
   5   2.0000     -11.563824      -314.6677
   6   2.0000     -11.561992      -314.6178
   7   2.0000     -11.561970      -314.6172
   8   2.0000     -11.522446      -313.5417
   9   2.0000     -11.521917      -313.5273
  10   2.0000      -1.631746       -44.4021
  11   2.0000      -1.618517       -44.0421
  12   2.0000      -1.417416       -38.5698
  13   2.0000      -1.360744       -37.0277
  14   2.0000      -1.342888       -36.5418
  15   2.0000      -1.254614       -34.1398
  16   2.0000      -1.211600       -32.9693
  17   2.0000      -1.179178       -32.0871
  18   2.0000      -1.110739       -30.2247
  19   2.0000      -1.101247       -29.9665
  20   2.0000      -1.081487       -29.4288
  21   2.0000      -1.065853       -29.0033
  22   2.0000      -1.022376       -27.8203
  23   2.0000      -1.001698       -27.2576
  24   2.0000      -0.969459       -26.3803
  25   2.0000      -0.925473       -25.1834
  26   2.0000      -0.919603       -25.0237
  27   2.0000      -0.895554       -24.3693
  28   2.0000      -0.895145       -24.3581
  29   2.0000      -0.874809       -23.8048
  30   2.0000      -0.869537       -23.6613
  31   2.0000      -0.838962       -22.8293
  32   2.0000      -0.838498       -22.8167
  33   2.0000      -0.816980       -22.2311
  34   2.0000      -0.796551       -21.6753
  35   2.0000      -0.792169       -21.5560
  36   2.0000      -0.779489       -21.2110
  37   2.0000      -0.767796       -20.8928
  38   2.0000      -0.757265       -20.6062
  39   0.0000      -0.158767        -4.3203
  40   0.0000      -0.132585        -3.6078
  41   0.0000      -0.111104        -3.0233
  42   0.0000      -0.092814        -2.5256
  43   0.0000      -0.083169        -2.2631

MULLIKEN ATOMIC CHARGES
-----------------------
   0 N :   -0.286130
   1 C :   -0.064543
   2 C :   -0.064558
   3 C :    0.056008
   4 C :    0.055945
   5 C :   -0.116758
   6 C :    0.074055
   7 N :    0.028562
   8 C :    0.000403
   9 C :    0.000249
  10 H :    0.107327
  11 H :    0.107353
  12 H :    0.117578
  13 H :    0.078743
  14 H :    0.078753
  15 H :    0.117604
  16 H :    0.119207
  17 H :    0.115917
  18 H :    0.120459
  19 H :    0.120431
  20 H :    0.218862
  21 H :    0.218810
  22 H :    0.107683
  23 H :    0.091403
  24 H :    0.107683
  25 H :    0.091430
  26 H :    0.188282
  27 H :    0.209240
Sum of atomic charges:    2.0000000

LOEWDIN ATOMIC CHARGES
----------------------
   0 N :    0.268670
   1 C :    0.046974
   2 C :    0.047035
   3 C :   -0.018400
   4 C :   -0.018424
   5 C :    0.029029
   6 C :    0.062149
   7 N :    0.364740
   8 C :   -0.008338
   9 C :   -0.008359
  10 H :    0.054510
  11 H :    0.054526
  12 H :    0.059606
  13 H :    0.039961
  14 H :    0.039973
  15 H :    0.059625
  16 H :    0.052497
  17 H :    0.052308
  18 H :    0.057533
  19 H :    0.057503
  20 H :    0.139558
  21 H :    0.139498
  22 H :    0.052661
  23 H :    0.046001
  24 H :    0.052662
  25 H :    0.046020
  26 H :    0.098986
  27 H :    0.131498

  Mayer bond orders larger than 0.1
B(  0-N ,  1-C ) :   0.8550 B(  0-N ,  2-C ) :   0.8549 B(  0-N ,  6-C ) :   0.8666
B(  0-N , 26-H ) :   0.9300 B(  1-C ,  3-C ) :   1.0494 B(  1-C ,  9-C ) :   0.9956
B(  1-C , 10-H ) :   0.9722 B(  2-C ,  4-C ) :   1.0494 B(  2-C ,  8-C ) :   0.9956
B(  2-C , 11-H ) :   0.9722 B(  3-C ,  5-C ) :   1.0007 B(  3-C , 12-H ) :   0.9501
B(  3-C , 13-H ) :   0.9568 B(  4-C ,  5-C ) :   1.0007 B(  4-C , 14-H ) :   0.9568
B(  4-C , 15-H ) :   0.9501 B(  5-C ,  7-N ) :   0.9156 B(  5-C , 16-H ) :   0.9499
B(  6-C , 17-H ) :   0.9758 B(  6-C , 18-H ) :   0.9737 B(  6-C , 19-H ) :   0.9737
B(  7-N , 20-H ) :   0.9398 B(  7-N , 21-H ) :   0.9399 B(  7-N , 27-H ) :   0.9418
B(  8-C ,  9-C ) :   1.0204 B(  8-C , 22-H ) :   0.9613 B(  8-C , 23-H ) :   0.9703
B(  9-C , 24-H ) :   0.9613 B(  9-C , 25-H ) :   0.9703

E(0)                                       ...   -421.817940635
E(0)                                       ...   -421.817940635
E(CORR)(strong-pairs)                      ...     -1.565532422
E(CORR)(weak-pairs)                        ...     -0.001061862
E(CORR)(corrected)                         ...     -1.566594284
E(TOT)                                     ...   -423.384534920
E(CCSD(T))                                 ...   -423.433952260
FINAL SINGLE POINT ENERGY      -423.433952260036

DIPOLE MOMENT
-------------
                                X             Y             Z
Electronic contribution:      2.16043      -0.00013      -0.77840
Nuclear contribution   :      0.51697       0.00013      -0.28117
                        -----------------------------------------
Total Dipole Moment    :      2.67740       0.00000      -1.05958
                        -----------------------------------------
Magnitude (a.u.)       :      2.87944
Magnitude (Debye)      :      7.31895

Rotational constants in cm-1:     0.075435     0.033315     0.032419
Rotational constants in MHz :  2261.481236   998.747079   971.889787

                             ****ORCA TERMINATED NORMALLY****
TOTAL RUN TIME: 0 days 0 hours 8 minutes 18 seconds 700 msec
