                         Program Version 4.1.x  -  STABLE  -
|  1> ! RHF DLPNO-CCSD(T) cc-pVDZ RIJK cc-pVTZ/JK cc-pVDZ/C
|  2> ! KDIIS SOSCF TightSCF TightPNO
|  3>
|  4> %pal nprocs 4 end
|  5>
|  6> %maxcore 8000
|  7>
|  8> %scf maxiter 300
|  9>      shift shift 0.2 erroff 0.1 end
| 10> end
| 11>
| 12> * xyzfile 1 1 3b_aminotropane_2b.xyz
| 13>
| 14>
| 15>                          ****END OF INPUT****

CARTESIAN COORDINATES (ANGSTROEM)
---------------------------------
  C     -1.569180   -1.067240   -0.777870
  C     -0.462250   -0.069820   -1.178750
  N     -0.450610    0.900800   -0.000020
  C     -0.462240   -0.069710    1.178750
  C     -1.569120   -1.067250    0.777920
  C      0.958750   -0.699030    1.272290
  C      1.800450   -0.460050    0.000030
  C      0.958720   -0.699250   -1.272170
  C     -1.547740    1.912010   -0.000060
  N      2.240750    0.960380   -0.000110
  H     -0.704860    0.493220   -2.082050
  H     -0.704950    0.493360    2.082010
  H      1.493320   -0.297240   -2.139040
  H      0.859970   -1.774840   -1.442820
  H      0.860050   -1.774580    1.443210
  H      1.493340   -0.296770    2.139060
  H      2.651650   -1.150990    0.000060
  H     -2.520000    1.420170    0.000070
  H     -1.449610    2.533450    0.891460
  H     -1.449740    2.533250   -0.891720
  H      2.811990    1.168790   -0.817270
  H      2.812020    1.168920    0.816990
  H     -2.539350   -0.750350    1.169040
  H     -1.368010   -2.052950    1.202090
  H     -2.539420   -0.750220   -1.168890
  H     -1.368220   -2.052960   -1.202080
  H      0.486470    1.383540   -0.000060

 Total Charge           Charge          ....    1
 Multiplicity           Mult            ....    1
 Number of Electrons    NEL             ....   78
 Basis Dimension        Dim             ....  225

ORBITAL ENERGIES
----------------

  NO   OCC          E(Eh)            E(eV)
   0   2.0000     -15.816331      -430.3842
   1   2.0000     -15.709052      -427.4650
   2   2.0000     -11.442916      -311.3776
   3   2.0000     -11.442900      -311.3771
   4   2.0000     -11.435917      -311.1871
   5   2.0000     -11.420973      -310.7805
   6   2.0000     -11.388093      -309.8858
   7   2.0000     -11.388074      -309.8852
   8   2.0000     -11.384621      -309.7913
   9   2.0000     -11.384082      -309.7766
  10   2.0000      -1.472317       -40.0638
  11   2.0000      -1.343789       -36.5664
  12   2.0000      -1.241178       -33.7742
  13   2.0000      -1.199409       -32.6376
  14   2.0000      -1.174218       -31.9521
  15   2.0000      -1.110073       -30.2066
  16   2.0000      -1.050331       -28.5810
  17   2.0000      -0.999673       -27.2025
  18   2.0000      -0.953229       -25.9387
  19   2.0000      -0.934713       -25.4348
  20   2.0000      -0.863800       -23.5052
  21   2.0000      -0.858655       -23.3652
  22   2.0000      -0.820481       -22.3264
  23   2.0000      -0.797101       -21.6902
  24   2.0000      -0.770638       -20.9701
  25   2.0000      -0.759326       -20.6623
  26   2.0000      -0.735887       -20.0245
  27   2.0000      -0.732901       -19.9432
  28   2.0000      -0.731204       -19.8971
  29   2.0000      -0.701598       -19.0915
  30   2.0000      -0.699157       -19.0250
  31   2.0000      -0.684719       -18.6322
  32   2.0000      -0.660345       -17.9689
  33   2.0000      -0.640245       -17.4219
  34   2.0000      -0.638628       -17.3780
  35   2.0000      -0.622133       -16.9291
  36   2.0000      -0.616925       -16.7874
  37   2.0000      -0.610553       -16.6140
  38   2.0000      -0.550075       -14.9683
  39   0.0000       0.011511         0.3132
  40   0.0000       0.042673         1.1612
  41   0.0000       0.060789         1.6542
  42   0.0000       0.062461         1.6997
  43   0.0000       0.070835         1.9275

MULLIKEN ATOMIC CHARGES
-----------------------
   0 C :    0.012341
   1 C :   -0.054967
   2 N :   -0.314190
   3 C :   -0.054975
   4 C :    0.012342
   5 C :    0.087485
   6 C :   -0.112136
   7 C :    0.087475
   8 C :    0.087099
   9 N :   -0.281194
  10 H :    0.069659
  11 H :    0.069659
  12 H :    0.065038
  13 H :    0.071618
  14 H :    0.071622
  15 H :    0.065035
  16 H :    0.063058
  17 H :    0.088896
  18 H :    0.092417
  19 H :    0.092413
  20 H :    0.132762
  21 H :    0.132760
  22 H :    0.070297
  23 H :    0.077623
  24 H :    0.070295
  25 H :    0.077630
  26 H :    0.219939
Sum of atomic charges:    1.0000000

LOEWDIN ATOMIC CHARGES
----------------------
   0 C :   -0.014348
   1 C :    0.038238
   2 N :    0.259251
   3 C :    0.038221
   4 C :   -0.014341
   5 C :   -0.014264
   6 C :   -0.013078
   7 C :   -0.014262
   8 C :    0.038370
   9 N :   -0.020157
  10 H :    0.035785
  11 H :    0.035786
  12 H :    0.036826
  13 H :    0.040499
  14 H :    0.040500
  15 H :    0.036827
  16 H :    0.031105
  17 H :    0.040870
  18 H :    0.045525
  19 H :    0.045521
  20 H :    0.056690
  21 H :    0.056687
  22 H :    0.035314
  23 H :    0.039770
  24 H :    0.035313
  25 H :    0.039774
  26 H :    0.063578

  Mayer bond orders larger than 0.1
B(  0-C ,  1-C ) :   1.0110 B(  0-C ,  4-C ) :   1.0223 B(  0-C , 24-H ) :   0.9673
B(  0-C , 25-H ) :   0.9703 B(  1-C ,  2-N ) :   0.8695 B(  1-C ,  7-C ) :   1.0101
B(  1-C , 10-H ) :   0.9792 B(  2-N ,  3-C ) :   0.8695 B(  2-N ,  8-C ) :   0.9143
B(  2-N , 26-H ) :   0.8368 B(  3-C ,  4-C ) :   1.0110 B(  3-C ,  5-C ) :   1.0101
B(  3-C , 11-H ) :   0.9792 B(  4-C , 22-H ) :   0.9673 B(  4-C , 23-H ) :   0.9703
B(  5-C ,  6-C ) :   1.0141 B(  5-C , 14-H ) :   0.9679 B(  5-C , 15-H ) :   0.9646
B(  6-C ,  7-C ) :   1.0141 B(  6-C ,  9-N ) :   0.9915 B(  6-C , 16-H ) :   0.9775
B(  7-C , 12-H ) :   0.9646 B(  7-C , 13-H ) :   0.9679 B(  8-C , 17-H ) :   0.9803
B(  8-C , 18-H ) :   0.9796 B(  8-C , 19-H ) :   0.9796 B(  9-N , 20-H ) :   0.9727
B(  9-N , 21-H ) :   0.9727 B(  9-N , 26-H ) :   0.1706

E(0)                                       ...   -421.574098056
E(0)                                       ...   -421.574098056
E(CORR)(strong-pairs)                      ...     -1.571457141
E(CORR)(weak-pairs)                        ...     -0.000981740
E(CORR)(corrected)                         ...     -1.572438881
E(TOT)                                     ...   -423.146536936
E(CCSD(T))                                 ...   -423.197229281
FINAL SINGLE POINT ENERGY      -423.197229281080

DIPOLE MOMENT
-------------
                                X             Y             Z
Electronic contribution:      1.26154       0.29329      -0.00011
Nuclear contribution   :     -1.22364       0.32010       0.00006
                        -----------------------------------------
Total Dipole Moment    :      0.03790       0.61339      -0.00004
                        -----------------------------------------
Magnitude (a.u.)       :      0.61456
Magnitude (Debye)      :      1.56209

Rotational constants in cm-1:     0.063580     0.041883     0.038978
Rotational constants in MHz :  1906.069451  1255.606172  1168.520634

                             ****ORCA TERMINATED NORMALLY****
TOTAL RUN TIME: 0 days 0 hours 9 minutes 39 seconds 630 msec
