                         Program Version 4.1.x  -  STABLE  -
|  1> ! RHF DLPNO-CCSD(T) cc-pVDZ RIJK cc-pVTZ/JK cc-pVDZ/C
|  2> ! KDIIS SOSCF TightSCF TightPNO
|  3>
|  4> %pal nprocs 4 end
|  5>
|  6> %maxcore 8000
|  7>
|  8> %scf maxiter 300
|  9>      shift shift 0.2 erroff 0.1 end
| 10> end
| 11>
| 12> * xyzfile 1 1 3b_aminotropane_2a.xyz
| 13>
| 14>
| 15>                          ****END OF INPUT****

CARTESIAN COORDINATES (ANGSTROEM)
---------------------------------
  C      0.951090    0.779230    1.417440
  C      0.558650    1.187800   -0.017720
  N      1.074570   -0.000050   -0.841250
  C      0.558640   -1.187790   -0.017610
  C      0.951060   -0.779090    1.417520
  C     -0.952200   -1.270520   -0.264820
  C     -1.704350    0.000000    0.187490
  C     -0.952180    1.270490   -0.264920
  C      2.553080   -0.000060   -1.087690
  N     -3.035660   -0.000010   -0.413670
  H      1.065600    2.089160   -0.369950
  H      1.065590   -2.089210   -0.369730
  H     -1.338410    2.150530    0.260980
  H     -1.148710    1.437160   -1.332870
  H     -1.148710   -1.437290   -1.332770
  H     -1.338440   -2.150510    0.261150
  H     -1.735790    0.000040    1.289630
  H      3.081410   -0.000090   -0.136040
  H      2.813780   -0.893740   -1.656500
  H      2.813800    0.893650   -1.656450
  H     -3.573130   -0.817500   -0.134830
  H     -3.573090    0.817550   -0.134970
  H      1.935040   -1.173900    1.682110
  H      0.241110   -1.197250    2.134070
  H      1.935100    1.174030    1.681960
  H      0.241180    1.197490    2.133970
  H      0.608600   -0.000090   -1.753400

 Total Charge           Charge          ....    1
 Multiplicity           Mult            ....    1
 Number of Electrons    NEL             ....   78
 Basis Dimension        Dim             ....  225

ORBITAL ENERGIES
----------------

  NO   OCC          E(Eh)            E(eV)
   0   2.0000     -15.844916      -431.1621
   1   2.0000     -15.668230      -426.3542
   2   2.0000     -11.452745      -311.6450
   3   2.0000     -11.452728      -311.6446
   4   2.0000     -11.450567      -311.5858
   5   2.0000     -11.405881      -310.3698
   6   2.0000     -11.394090      -310.0490
   7   2.0000     -11.393556      -310.0344
   8   2.0000     -11.384748      -309.7948
   9   2.0000     -11.384727      -309.7942
  10   2.0000      -1.488663       -40.5086
  11   2.0000      -1.321077       -35.9483
  12   2.0000      -1.249630       -34.0042
  13   2.0000      -1.210841       -32.9486
  14   2.0000      -1.172163       -31.8962
  15   2.0000      -1.117269       -30.4024
  16   2.0000      -1.051700       -28.6182
  17   2.0000      -1.006111       -27.3777
  18   2.0000      -0.963313       -26.2131
  19   2.0000      -0.946851       -25.7651
  20   2.0000      -0.863323       -23.4922
  21   2.0000      -0.855293       -23.2737
  22   2.0000      -0.815265       -22.1845
  23   2.0000      -0.803234       -21.8571
  24   2.0000      -0.762886       -20.7592
  25   2.0000      -0.762107       -20.7380
  26   2.0000      -0.742831       -20.2135
  27   2.0000      -0.738176       -20.0868
  28   2.0000      -0.726692       -19.7743
  29   2.0000      -0.721979       -19.6461
  30   2.0000      -0.703546       -19.1444
  31   2.0000      -0.685517       -18.6539
  32   2.0000      -0.667496       -18.1635
  33   2.0000      -0.648594       -17.6491
  34   2.0000      -0.640154       -17.4195
  35   2.0000      -0.621299       -16.9064
  36   2.0000      -0.615085       -16.7373
  37   2.0000      -0.605895       -16.4872
  38   2.0000      -0.516920       -14.0661
  39   0.0000       0.001804         0.0491
  40   0.0000       0.037276         1.0143
  41   0.0000       0.045391         1.2351
  42   0.0000       0.057303         1.5593
  43   0.0000       0.066016         1.7964

MULLIKEN ATOMIC CHARGES
-----------------------
   0 C :    0.012036
   1 C :   -0.068902
   2 N :   -0.280213
   3 C :   -0.068919
   4 C :    0.012039
   5 C :    0.063060
   6 C :   -0.060753
   7 C :    0.063053
   8 C :    0.085940
   9 N :   -0.240347
  10 H :    0.072715
  11 H :    0.072719
  12 H :    0.079020
  13 H :    0.062506
  14 H :    0.062509
  15 H :    0.079018
  16 H :    0.039335
  17 H :    0.096607
  18 H :    0.099533
  19 H :    0.099532
  20 H :    0.113652
  21 H :    0.113651
  22 H :    0.072942
  23 H :    0.081136
  24 H :    0.072943
  25 H :    0.081137
  26 H :    0.184053
Sum of atomic charges:    1.0000000

LOEWDIN ATOMIC CHARGES
----------------------
   0 C :   -0.013074
   1 C :    0.038946
   2 N :    0.270262
   3 C :    0.038933
   4 C :   -0.013074
   5 C :   -0.021445
   6 C :   -0.025251
   7 C :   -0.021446
   8 C :    0.045470
   9 N :   -0.040465
  10 H :    0.038420
  11 H :    0.038423
  12 H :    0.044329
  13 H :    0.033301
  14 H :    0.033303
  15 H :    0.044328
  16 H :    0.011845
  17 H :    0.045236
  18 H :    0.047809
  19 H :    0.047809
  20 H :    0.050650
  21 H :    0.050648
  22 H :    0.036096
  23 H :    0.042509
  24 H :    0.036097
  25 H :    0.042509
  26 H :    0.097832

  Mayer bond orders larger than 0.1
B(  0-C ,  1-C ) :   1.0018 B(  0-C ,  4-C ) :   1.0276 B(  0-C , 24-H ) :   0.9662
B(  0-C , 25-H ) :   0.9703 B(  1-C ,  2-N ) :   0.8455 B(  1-C ,  7-C ) :   1.0418
B(  1-C , 10-H ) :   0.9766 B(  2-N ,  3-C ) :   0.8455 B(  2-N ,  8-C ) :   0.8991
B(  2-N , 26-H ) :   0.9291 B(  3-C ,  4-C ) :   1.0018 B(  3-C ,  5-C ) :   1.0418
B(  3-C , 11-H ) :   0.9766 B(  4-C , 22-H ) :   0.9662 B(  4-C , 23-H ) :   0.9703
B(  5-C ,  6-C ) :   1.0079 B(  5-C , 14-H ) :   0.9540 B(  5-C , 15-H ) :   0.9568
B(  6-C ,  7-C ) :   1.0079 B(  6-C ,  9-N ) :   1.0826 B(  6-C , 16-H ) :   0.9519
B(  7-C , 12-H ) :   0.9568 B(  7-C , 13-H ) :   0.9540 B(  8-C , 17-H ) :   0.9787
B(  8-C , 18-H ) :   0.9783 B(  8-C , 19-H ) :   0.9783 B(  9-N , 20-H ) :   0.9755
B(  9-N , 21-H ) :   0.9755

E(0)                                       ...   -421.571178094
E(0)                                       ...   -421.571178094
E(CORR)(strong-pairs)                      ...     -1.566393637
E(CORR)(weak-pairs)                        ...     -0.000980624
E(CORR)(corrected)                         ...     -1.567374260
E(TOT)                                     ...   -423.138552354
E(CCSD(T))                                 ...   -423.188388355
FINAL SINGLE POINT ENERGY      -423.188388354532

DIPOLE MOMENT
-------------
                                X             Y             Z
Electronic contribution:     -0.73306      -0.00002      -0.86074
Nuclear contribution   :      2.03101       0.00004       0.58720
                        -----------------------------------------
Total Dipole Moment    :      1.29795       0.00002      -0.27354
                        -----------------------------------------
Magnitude (a.u.)       :      1.32646
Magnitude (Debye)      :      3.37161

Rotational constants in cm-1:     0.075166     0.034654     0.033816
Rotational constants in MHz :  2253.412670  1038.892621  1013.768863

                             ****ORCA TERMINATED NORMALLY****
TOTAL RUN TIME: 0 days 0 hours 8 minutes 42 seconds 515 msec
