                         Program Version 4.1.x  -  STABLE  -
|  1> ! RHF DLPNO-CCSD(T) cc-pVDZ RIJK cc-pVTZ/JK cc-pVDZ/C
|  2> ! KDIIS SOSCF TightSCF TightPNO
|  3>
|  4> %pal nprocs 4 end
|  5>
|  6> %maxcore 8000
|  7>
|  8> %scf maxiter 300
|  9>      shift shift 0.2 erroff 0.1 end
| 10> end
| 11>
| 12> * xyzfile 0 1 3b_aminotropane_1a.xyz
| 13>
| 14>
| 15>                          ****END OF INPUT****

CARTESIAN COORDINATES (ANGSTROEM)
---------------------------------
  C      0.938980    0.777940    1.409270
  C      0.590080    1.145580   -0.068940
  N      1.069860    0.000000   -0.870990
  C      0.590080   -1.145570   -0.068950
  C      0.938950   -0.777940    1.409280
  C     -0.926690   -1.266790   -0.303300
  C     -1.673080   -0.000000    0.153280
  C     -0.926710    1.266800   -0.303300
  C      2.513780   -0.000010   -1.096680
  N     -3.039190   -0.000020   -0.394100
  H      1.087280    2.063800   -0.398520
  H      1.087310   -2.063790   -0.398520
  H     -1.322280    2.144170    0.227470
  H     -1.104240    1.413440   -1.374270
  H     -1.104230   -1.413430   -1.374260
  H     -1.322250   -2.144150    0.227470
  H     -1.686650   -0.000000    1.256830
  H      3.127620   -0.000010   -0.177650
  H      2.785450   -0.883840   -1.682780
  H      2.785470    0.883820   -1.682770
  H     -3.554270   -0.817990   -0.075260
  H     -3.554260    0.817980   -0.075290
  H      1.923720   -1.170930    1.681460
  H      0.220220   -1.201940    2.118170
  H      1.923750    1.170940    1.681430
  H      0.220280    1.201950    2.118180

 Total Charge           Charge          ....    0
 Multiplicity           Mult            ....    1
 Number of Electrons    NEL             ....   78
 Basis Dimension        Dim             ....  220

ORBITAL ENERGIES
----------------

  NO   OCC          E(Eh)            E(eV)
   0   2.0000     -15.535958      -422.7549
   1   2.0000     -15.533833      -422.6971
   2   2.0000     -11.249031      -306.1017
   3   2.0000     -11.248935      -306.0991
   4   2.0000     -11.248915      -306.0985
   5   2.0000     -11.245212      -305.9978
   6   2.0000     -11.221078      -305.3411
   7   2.0000     -11.220539      -305.3264
   8   2.0000     -11.213615      -305.1380
   9   2.0000     -11.213597      -305.1375
  10   2.0000      -1.239449       -33.7271
  11   2.0000      -1.170402       -31.8483
  12   2.0000      -1.048997       -28.5447
  13   2.0000      -1.016960       -27.6729
  14   2.0000      -0.998466       -27.1696
  15   2.0000      -0.910882       -24.7864
  16   2.0000      -0.872014       -23.7287
  17   2.0000      -0.805470       -21.9180
  18   2.0000      -0.775782       -21.1101
  19   2.0000      -0.717920       -19.5356
  20   2.0000      -0.668105       -18.1801
  21   2.0000      -0.653465       -17.7817
  22   2.0000      -0.636920       -17.3315
  23   2.0000      -0.616384       -16.7726
  24   2.0000      -0.586691       -15.9647
  25   2.0000      -0.580442       -15.7946
  26   2.0000      -0.551461       -15.0060
  27   2.0000      -0.550302       -14.9745
  28   2.0000      -0.540694       -14.7130
  29   2.0000      -0.536664       -14.6034
  30   2.0000      -0.502984       -13.6869
  31   2.0000      -0.496894       -13.5212
  32   2.0000      -0.461854       -12.5677
  33   2.0000      -0.460513       -12.5312
  34   2.0000      -0.441109       -12.0032
  35   2.0000      -0.440367       -11.9830
  36   2.0000      -0.430180       -11.7058
  37   2.0000      -0.378131       -10.2895
  38   2.0000      -0.347195        -9.4477
  39   0.0000       0.173928         4.7328
  40   0.0000       0.183917         5.0046
  41   0.0000       0.210340         5.7236
  42   0.0000       0.211166         5.7461
  43   0.0000       0.223207         6.0738

MULLIKEN ATOMIC CHARGES
-----------------------
   0 C :    0.004708
   1 C :   -0.041001
   2 N :   -0.450492
   3 C :   -0.041006
   4 C :    0.004700
   5 C :    0.122985
   6 C :   -0.078763
   7 C :    0.122963
   8 C :    0.125394
   9 N :   -0.248834
  10 H :    0.006708
  11 H :    0.006710
  12 H :    0.014717
  13 H :    0.038554
  14 H :    0.038550
  15 H :    0.014714
  16 H :    0.006820
  17 H :    0.001860
  18 H :    0.032614
  19 H :    0.032612
  20 H :    0.088261
  21 H :    0.088262
  22 H :    0.028888
  23 H :    0.025594
  24 H :    0.028888
  25 H :    0.025590
Sum of atomic charges:   -0.0000000

LOEWDIN ATOMIC CHARGES
----------------------
   0 C :   -0.034420
   1 C :   -0.010076
   2 N :   -0.032021
   3 C :   -0.010083
   4 C :   -0.034420
   5 C :   -0.020909
   6 C :   -0.026228
   7 C :   -0.020909
   8 C :   -0.022804
   9 N :   -0.056030
  10 H :    0.012904
  11 H :    0.012906
  12 H :    0.013218
  13 H :    0.024262
  14 H :    0.024260
  15 H :    0.013217
  16 H :   -0.001361
  17 H :   -0.001171
  18 H :    0.019354
  19 H :    0.019353
  20 H :    0.034609
  21 H :    0.034612
  22 H :    0.016012
  23 H :    0.014857
  24 H :    0.016013
  25 H :    0.014856

  Mayer bond orders larger than 0.1
B(  0-C ,  1-C ) :   1.0009 B(  0-C ,  4-C ) :   1.0371 B(  0-C , 24-H ) :   0.9692
B(  0-C , 25-H ) :   0.9725 B(  1-C ,  2-N ) :   0.9721 B(  1-C ,  7-C ) :   1.0469
B(  1-C , 10-H ) :   0.9763 B(  2-N ,  3-C ) :   0.9721 B(  2-N ,  8-C ) :   1.0069
B(  3-C ,  4-C ) :   1.0009 B(  3-C ,  5-C ) :   1.0469 B(  3-C , 11-H ) :   0.9763
B(  4-C , 22-H ) :   0.9692 B(  4-C , 23-H ) :   0.9725 B(  5-C ,  6-C ) :   1.0174
B(  5-C , 14-H ) :   0.9537 B(  5-C , 15-H ) :   0.9612 B(  6-C ,  7-C ) :   1.0174
B(  6-C ,  9-N ) :   1.0524 B(  6-C , 16-H ) :   0.9562 B(  7-C , 12-H ) :   0.9612
B(  7-C , 13-H ) :   0.9537 B(  8-C , 17-H ) :   0.9705 B(  8-C , 18-H ) :   0.9878
B(  8-C , 19-H ) :   0.9878 B(  9-N , 20-H ) :   0.9822 B(  9-N , 21-H ) :   0.9822

E(0)                                       ...   -421.170802441
E(0)                                       ...   -421.170802441
E(CORR)(strong-pairs)                      ...     -1.569504900
E(CORR)(weak-pairs)                        ...     -0.000984122
E(CORR)(corrected)                         ...     -1.570489022
E(TOT)                                     ...   -422.741291463
E(CCSD(T))                                 ...   -422.792021640
FINAL SINGLE POINT ENERGY      -422.792021640069

DIPOLE MOMENT
-------------
                                X             Y             Z
Electronic contribution:     -1.47518      -0.00001      -1.41988
Nuclear contribution   :      1.56839       0.00003       2.15641
                        -----------------------------------------
Total Dipole Moment    :      0.09322       0.00002       0.73653
                        -----------------------------------------
Magnitude (a.u.)       :      0.74240
Magnitude (Debye)      :      1.88704

Rotational constants in cm-1:     0.077002     0.035215     0.034406
Rotational constants in MHz :  2308.449081  1055.726952  1031.453759

                             ****ORCA TERMINATED NORMALLY****
TOTAL RUN TIME: 0 days 0 hours 9 minutes 40 seconds 274 msec
