                         Program Version 4.1.x  -  STABLE  -
|  1> ! RHF DLPNO-CCSD(T) cc-pVDZ RIJK cc-pVTZ/JK cc-pVDZ/C
|  2> ! KDIIS SOSCF TightSCF TightPNO
|  3>
|  4> %pal nprocs 4 end
|  5>
|  6> %maxcore 8000
|  7>
|  8> %scf maxiter 300
|  9>      shift shift 0.2 erroff 0.1 end
| 10> end
| 11>
| 12> * xyzfile 2 1 3b_aminotropane_3c.xyz
| 13>
| 14>
| 15>                          ****END OF INPUT****

CARTESIAN COORDINATES (ANGSTROEM)
---------------------------------
  N     -1.355100    0.667000   -0.000000
  C     -0.768100   -0.109100   -1.187700
  C     -0.768100   -0.109100    1.187700
  C      0.746200    0.164700   -1.277500
  C      0.746200    0.164700    1.277400
  C      1.455700   -0.318600    0.000000
  C     -1.277300    2.169400   -0.000000
  N      2.919500    0.130900    0.000000
  C     -1.123500   -1.556900    0.782800
  C     -1.123500   -1.556900   -0.782800
  H     -1.263500    0.227500   -2.100500
  H     -1.263500    0.227600    2.100500
  H      1.120900   -0.366500   -2.159100
  H      0.929000    1.232000   -1.452700
  H      0.928900    1.232000    1.452600
  H      1.120900   -0.366400    2.159100
  H      1.518400   -1.409800    0.000000
  H     -0.243900    2.505200   -0.000300
  H     -1.785500    2.539400   -0.892100
  H     -1.785000    2.539400    0.892300
  H      3.422000   -0.220800    0.826200
  H      3.422000   -0.220900   -0.826200
  H     -2.108600   -1.825000    1.173000
  H     -0.420000   -2.273900    1.212400
  H     -2.108600   -1.825000   -1.172900
  H     -0.420100   -2.274000   -1.212400
  H     -2.358900    0.450300   -0.000000
  H      3.018000    1.154200   -0.000000

 Total Charge           Charge          ....    2
 Multiplicity           Mult            ....    1
 Number of Electrons    NEL             ....   78
 Basis Dimension        Dim             ....  230

ORBITAL ENERGIES
----------------

  NO   OCC          E(Eh)            E(eV)
   0   2.0000     -16.020643      -435.9439
   1   2.0000     -15.980752      -434.8584
   2   2.0000     -11.625724      -316.3520
   3   2.0000     -11.596338      -315.5524
   4   2.0000     -11.596320      -315.5519
   5   2.0000     -11.572700      -314.9092
   6   2.0000     -11.560481      -314.5767
   7   2.0000     -11.560462      -314.5762
   8   2.0000     -11.523427      -313.5684
   9   2.0000     -11.522907      -313.5542
  10   2.0000      -1.631655       -44.3996
  11   2.0000      -1.619703       -44.0744
  12   2.0000      -1.418331       -38.5947
  13   2.0000      -1.360816       -37.0297
  14   2.0000      -1.349327       -36.7171
  15   2.0000      -1.242007       -33.7967
  16   2.0000      -1.212336       -32.9893
  17   2.0000      -1.201946       -32.7066
  18   2.0000      -1.100834       -29.9552
  19   2.0000      -1.099326       -29.9142
  20   2.0000      -1.068047       -29.0630
  21   2.0000      -1.065770       -29.0011
  22   2.0000      -1.037912       -28.2430
  23   2.0000      -0.998623       -27.1739
  24   2.0000      -0.976600       -26.5746
  25   2.0000      -0.929369       -25.2894
  26   2.0000      -0.922376       -25.0991
  27   2.0000      -0.904013       -24.5995
  28   2.0000      -0.894182       -24.3319
  29   2.0000      -0.869982       -23.6734
  30   2.0000      -0.866956       -23.5911
  31   2.0000      -0.854084       -23.2408
  32   2.0000      -0.839144       -22.8343
  33   2.0000      -0.815467       -22.1900
  34   2.0000      -0.800158       -21.7734
  35   2.0000      -0.788702       -21.4617
  36   2.0000      -0.779521       -21.2119
  37   2.0000      -0.766904       -20.8685
  38   2.0000      -0.757872       -20.6228
  39   0.0000      -0.160213        -4.3596
  40   0.0000      -0.128544        -3.4978
  41   0.0000      -0.117981        -3.2104
  42   0.0000      -0.092389        -2.5140
  43   0.0000      -0.083907        -2.2832

MULLIKEN ATOMIC CHARGES
-----------------------
   0 N :   -0.290722
   1 C :   -0.059372
   2 C :   -0.059398
   3 C :    0.049872
   4 C :    0.049864
   5 C :   -0.115360
   6 C :    0.076085
   7 N :    0.027902
   8 C :   -0.003371
   9 C :   -0.003358
  10 H :    0.109775
  11 H :    0.109787
  12 H :    0.117324
  13 H :    0.081044
  14 H :    0.081031
  15 H :    0.117331
  16 H :    0.118301
  17 H :    0.087201
  18 H :    0.123797
  19 H :    0.123771
  20 H :    0.218663
  21 H :    0.218688
  22 H :    0.109279
  23 H :    0.092666
  24 H :    0.109264
  25 H :    0.092675
  26 H :    0.209393
  27 H :    0.207869
Sum of atomic charges:    2.0000000

LOEWDIN ATOMIC CHARGES
----------------------
   0 N :    0.266924
   1 C :    0.048145
   2 C :    0.048144
   3 C :   -0.018075
   4 C :   -0.018102
   5 C :    0.030455
   6 C :    0.049497
   7 N :    0.364491
   8 C :   -0.009142
   9 C :   -0.009140
  10 H :    0.055081
  11 H :    0.055088
  12 H :    0.059955
  13 H :    0.039730
  14 H :    0.039729
  15 H :    0.059965
  16 H :    0.052294
  17 H :    0.034950
  18 H :    0.060261
  19 H :    0.060235
  20 H :    0.139379
  21 H :    0.139399
  22 H :    0.054583
  23 H :    0.046106
  24 H :    0.054576
  25 H :    0.046113
  26 H :    0.118643
  27 H :    0.130715

  Mayer bond orders larger than 0.1
B(  0-N ,  1-C ) :   0.8581 B(  0-N ,  2-C ) :   0.8581 B(  0-N ,  6-C ) :   0.8774
B(  0-N , 26-H ) :   0.9239 B(  1-C ,  3-C ) :   1.0393 B(  1-C ,  9-C ) :   1.0070
B(  1-C , 10-H ) :   0.9701 B(  2-C ,  4-C ) :   1.0393 B(  2-C ,  8-C ) :   1.0070
B(  2-C , 11-H ) :   0.9701 B(  3-C ,  5-C ) :   0.9992 B(  3-C , 12-H ) :   0.9517
B(  3-C , 13-H ) :   0.9569 B(  4-C ,  5-C ) :   0.9992 B(  4-C , 14-H ) :   0.9569
B(  4-C , 15-H ) :   0.9517 B(  5-C ,  7-N ) :   0.9144 B(  5-C , 16-H ) :   0.9506
B(  6-C , 17-H ) :   0.9772 B(  6-C , 18-H ) :   0.9735 B(  6-C , 19-H ) :   0.9735
B(  7-N , 20-H ) :   0.9400 B(  7-N , 21-H ) :   0.9400 B(  7-N , 27-H ) :   0.9423
B(  8-C ,  9-C ) :   1.0195 B(  8-C , 22-H ) :   0.9582 B(  8-C , 23-H ) :   0.9701
B(  9-C , 24-H ) :   0.9582 B(  9-C , 25-H ) :   0.9701

E(0)                                       ...   -421.814376672
E(0)                                       ...   -421.814376672
E(CORR)(strong-pairs)                      ...     -1.565613981
E(CORR)(weak-pairs)                        ...     -0.001037590
E(CORR)(corrected)                         ...     -1.566651571
E(TOT)                                     ...   -423.381028242
E(CCSD(T))                                 ...   -423.430458482
FINAL SINGLE POINT ENERGY      -423.430458481558

DIPOLE MOMENT
-------------
                                X             Y             Z
Electronic contribution:      0.52245      -0.57863      -0.00006
Nuclear contribution   :      1.82933       1.40483       0.00006
                        -----------------------------------------
Total Dipole Moment    :      2.35178       0.82620      -0.00000
                        -----------------------------------------
Magnitude (a.u.)       :      2.49269
Magnitude (Debye)      :      6.33590

Rotational constants in cm-1:     0.058945     0.039104     0.035198
Rotational constants in MHz :  1767.112158  1172.310853  1055.194648

                             ****ORCA TERMINATED NORMALLY****
TOTAL RUN TIME: 0 days 0 hours 8 minutes 12 seconds 100 msec
