                         Program Version 4.1.x  -  STABLE  -
|  1> ! RHF DLPNO-CCSD(T) cc-pVDZ RIJK cc-pVTZ/JK cc-pVDZ/C
|  2> ! KDIIS SOSCF TightSCF TightPNO
|  3>
|  4> %pal nprocs 4 end
|  5>
|  6> %maxcore 8000
|  7>
|  8> %scf maxiter 300
|  9>      shift shift 0.2 erroff 0.1 end
| 10> end
| 11>
| 12> * xyzfile 0 1 4_Me_THP_ax.xyz
| 13>
| 14>
| 15>                          ****END OF INPUT****

CARTESIAN COORDINATES (ANGSTROEM)
---------------------------------
  C      0.995250    1.182860   -0.333140
  O      1.763340    0.000020   -0.115230
  C      0.995270   -1.182860   -0.333140
  C     -0.209710   -1.255930    0.609450
  C     -1.105220   -0.000000    0.506730
  C     -0.209740    1.255940    0.609440
  C     -1.985450   -0.000020   -0.755110
  H     -2.631820   -0.884960   -0.777690
  H     -1.398090    0.000010   -1.679250
  H     -2.631870    0.884890   -0.777680
  H      0.674010   -1.222090   -1.387710
  H      1.678500   -2.019650   -0.162060
  H      0.165820   -1.348920    1.636430
  H     -0.790300   -2.162600    0.393480
  H     -1.783140   -0.000010    1.370810
  H      0.165780    1.348950    1.636420
  H      1.678450    2.019670   -0.162070
  H      0.673960    1.222070   -1.387720
  H     -0.790330    2.162600    0.393450

 Total Charge           Charge          ....    0
 Multiplicity           Mult            ....    1
 Number of Electrons    NEL             ....   56
 Basis Dimension        Dim             ....  158

ORBITAL ENERGIES
----------------

  NO   OCC          E(Eh)            E(eV)
   0   2.0000     -20.544867      -559.0543
   1   2.0000     -11.272868      -306.7503
   2   2.0000     -11.272849      -306.7498
   3   2.0000     -11.234077      -305.6948
   4   2.0000     -11.224547      -305.4355
   5   2.0000     -11.224519      -305.4347
   6   2.0000     -11.223368      -305.4034
   7   2.0000      -1.362647       -37.0795
   8   2.0000      -1.091446       -29.6998
   9   2.0000      -1.021371       -27.7929
  10   2.0000      -0.951090       -25.8805
  11   2.0000      -0.857215       -23.3260
  12   2.0000      -0.850834       -23.1524
  13   2.0000      -0.739707       -20.1284
  14   2.0000      -0.674347       -18.3499
  15   2.0000      -0.632125       -17.2010
  16   2.0000      -0.624313       -16.9884
  17   2.0000      -0.595985       -16.2176
  18   2.0000      -0.594535       -16.1781
  19   2.0000      -0.570809       -15.5325
  20   2.0000      -0.537314       -14.6211
  21   2.0000      -0.520939       -14.1755
  22   2.0000      -0.497352       -13.5336
  23   2.0000      -0.494338       -13.4516
  24   2.0000      -0.471607       -12.8331
  25   2.0000      -0.443306       -12.0630
  26   2.0000      -0.439156       -11.9501
  27   2.0000      -0.395747       -10.7688
  28   0.0000       0.173507         4.7214
  29   0.0000       0.195981         5.3329
  30   0.0000       0.218482         5.9452
  31   0.0000       0.226332         6.1588
  32   0.0000       0.239105         6.5064

MULLIKEN ATOMIC CHARGES
-----------------------
   0 C :    0.220602
   1 O :   -0.500667
   2 C :    0.220604
   3 C :   -0.021488
   4 C :   -0.220511
   5 C :   -0.021481
   6 C :    0.007009
   7 H :    0.031146
   8 H :    0.027754
   9 H :    0.031146
  10 H :    0.013301
  11 H :    0.035131
  12 H :    0.033904
  13 H :    0.021355
  14 H :    0.018514
  15 H :    0.033901
  16 H :    0.035127
  17 H :    0.013296
  18 H :    0.021354
Sum of atomic charges:   -0.0000000

LOEWDIN ATOMIC CHARGES
----------------------
   0 C :    0.021597
   1 O :   -0.091869
   2 C :    0.021611
   3 C :   -0.037142
   4 C :   -0.043247
   5 C :   -0.037143
   6 C :   -0.047758
   7 H :    0.021870
   8 H :    0.015827
   9 H :    0.021871
  10 H :    0.003761
  11 H :    0.021041
  12 H :    0.022212
  13 H :    0.020171
  14 H :    0.020016
  15 H :    0.022211
  16 H :    0.021039
  17 H :    0.003760
  18 H :    0.020170

  Mayer bond orders larger than 0.1
B(  0-C ,  1-O ) :   0.9616 B(  0-C ,  5-C ) :   1.0387 B(  0-C , 16-H ) :   0.9816
B(  0-C , 17-H ) :   0.9656 B(  1-O ,  2-C ) :   0.9616 B(  2-C ,  3-C ) :   1.0387
B(  2-C , 10-H ) :   0.9656 B(  2-C , 11-H ) :   0.9816 B(  3-C ,  4-C ) :   1.0324
B(  3-C , 12-H ) :   0.9625 B(  3-C , 13-H ) :   0.9669 B(  4-C ,  5-C ) :   1.0324
B(  4-C ,  6-C ) :   1.0336 B(  4-C , 14-H ) :   0.9676 B(  5-C , 15-H ) :   0.9625
B(  5-C , 18-H ) :   0.9669 B(  6-C ,  7-H ) :   0.9812 B(  6-C ,  8-H ) :   0.9777
B(  6-C ,  9-H ) :   0.9812

E(0)                                       ...   -309.069866274
E(0)                                       ...   -309.069866274
E(CORR)(strong-pairs)                      ...     -1.114584903
E(CORR)(weak-pairs)                        ...     -0.000466008
E(CORR)(corrected)                         ...     -1.115050911
E(TOT)                                     ...   -310.184917185
E(CCSD(T))                                 ...   -310.217965058
FINAL SINGLE POINT ENERGY      -310.217965058468

DIPOLE MOMENT
-------------
                                X             Y             Z
Electronic contribution:      4.56967       0.00002       0.89734
Nuclear contribution   :     -5.20946      -0.00006      -0.95069
                        -----------------------------------------
Total Dipole Moment    :     -0.63979      -0.00004      -0.05336
                        -----------------------------------------
Magnitude (a.u.)       :      0.64201
Magnitude (Debye)      :      1.63187

Rotational constants in cm-1:     0.125130     0.083973     0.064625
Rotational constants in MHz :  3751.317239  2517.442590  1937.399493

                             ****ORCA TERMINATED NORMALLY****
TOTAL RUN TIME: 0 days 0 hours 2 minutes 50 seconds 802 msec
