                         Program Version 4.1.x  -  STABLE  -
|  1> ! RHF DLPNO-CCSD(T) cc-pVDZ RIJK cc-pVTZ/JK cc-pVDZ/C
|  2> ! KDIIS SOSCF TightSCF TightPNO
|  3>
|  4> %pal nprocs 4 end
|  5>
|  6> %maxcore 8000
|  7>
|  8> %scf maxiter 300
|  9>      shift shift 0.2 erroff 0.1 end
| 10> end
| 11>
| 12> * xyzfile 0 1 4_Me_THP_eq.xyz
| 13>
| 14>
| 15>                          ****END OF INPUT****

CARTESIAN COORDINATES (ANGSTROEM)
---------------------------------
  C     -1.229340    1.183090    0.176150
  O     -1.835800    0.000010   -0.339030
  C     -1.229370   -1.183070    0.176140
  C      0.261740   -1.253010   -0.163430
  C      1.004240   -0.000010    0.335800
  C      0.261760    1.253010   -0.163430
  C      2.481620   -0.000010   -0.070450
  H      2.999500    0.885930    0.315150
  H      2.588010   -0.000010   -1.162290
  H      2.999490   -0.885960    0.315110
  H     -1.369990   -1.220570    1.271040
  H     -1.780140   -2.018880   -0.264470
  H      0.375020   -1.335550   -1.253260
  H      0.696120   -2.159920    0.278120
  H      0.953430   -0.000010    1.436700
  H      0.375040    1.335550   -1.253250
  H     -1.780120    2.018890   -0.264480
  H     -1.369960    1.220570    1.271030
  H      0.696170    2.159900    0.278120

 Total Charge           Charge          ....    0
 Multiplicity           Mult            ....    1
 Number of Electrons    NEL             ....   56
 Basis Dimension        Dim             ....  158

ORBITAL ENERGIES
----------------

  NO   OCC          E(Eh)            E(eV)
   0   2.0000     -20.545836      -559.0806
   1   2.0000     -11.273727      -306.7737
   2   2.0000     -11.273708      -306.7732
   3   2.0000     -11.233407      -305.6765
   4   2.0000     -11.224436      -305.4324
   5   2.0000     -11.224406      -305.4316
   6   2.0000     -11.222852      -305.3893
   7   2.0000      -1.364153       -37.1205
   8   2.0000      -1.093772       -29.7630
   9   2.0000      -1.022032       -27.8109
  10   2.0000      -0.955697       -26.0058
  11   2.0000      -0.858828       -23.3699
  12   2.0000      -0.833274       -22.6746
  13   2.0000      -0.762472       -20.7479
  14   2.0000      -0.660804       -17.9814
  15   2.0000      -0.631267       -17.1776
  16   2.0000      -0.623182       -16.9576
  17   2.0000      -0.618954       -16.8426
  18   2.0000      -0.592792       -16.1307
  19   2.0000      -0.543880       -14.7997
  20   2.0000      -0.538457       -14.6522
  21   2.0000      -0.520315       -14.1585
  22   2.0000      -0.514084       -13.9889
  23   2.0000      -0.493690       -13.4340
  24   2.0000      -0.466395       -12.6913
  25   2.0000      -0.444012       -12.0822
  26   2.0000      -0.439974       -11.9723
  27   2.0000      -0.399605       -10.8738
  28   0.0000       0.181519         4.9394
  29   0.0000       0.195489         5.3195
  30   0.0000       0.210014         5.7148
  31   0.0000       0.211141         5.7454
  32   0.0000       0.252363         6.8671

MULLIKEN ATOMIC CHARGES
-----------------------
   0 C :    0.231811
   1 O :   -0.500994
   2 C :    0.231806
   3 C :   -0.027025
   4 C :   -0.247387
   5 C :   -0.027021
   6 C :    0.029732
   7 H :    0.029527
   8 H :    0.028611
   9 H :    0.029524
  10 H :    0.011083
  11 H :    0.035613
  12 H :    0.031937
  13 H :    0.024232
  14 H :    0.015683
  15 H :    0.031936
  16 H :    0.035616
  17 H :    0.011087
  18 H :    0.024231
Sum of atomic charges:    0.0000000

LOEWDIN ATOMIC CHARGES
----------------------
   0 C :    0.022987
   1 O :   -0.090225
   2 C :    0.022975
   3 C :   -0.037868
   4 C :   -0.047361
   5 C :   -0.037866
   6 C :   -0.042920
   7 H :    0.021400
   8 H :    0.020254
   9 H :    0.021398
  10 H :    0.004174
  11 H :    0.020808
  12 H :    0.019864
  13 H :    0.021132
  14 H :    0.015266
  15 H :    0.019863
  16 H :    0.020811
  17 H :    0.004174
  18 H :    0.021133

  Mayer bond orders larger than 0.1
B(  0-C ,  1-O ) :   0.9644 B(  0-C ,  5-C ) :   1.0503 B(  0-C , 16-H ) :   0.9804
B(  0-C , 17-H ) :   0.9631 B(  1-O ,  2-C ) :   0.9644 B(  2-C ,  3-C ) :   1.0503
B(  2-C , 10-H ) :   0.9631 B(  2-C , 11-H ) :   0.9804 B(  3-C ,  4-C ) :   1.0188
B(  3-C , 12-H ) :   0.9574 B(  3-C , 13-H ) :   0.9658 B(  4-C ,  5-C ) :   1.0188
B(  4-C ,  6-C ) :   1.0647 B(  4-C , 14-H ) :   0.9535 B(  5-C , 15-H ) :   0.9574
B(  5-C , 18-H ) :   0.9658 B(  6-C ,  7-H ) :   0.9795 B(  6-C ,  8-H ) :   0.9752
B(  6-C ,  9-H ) :   0.9795

E(0)                                       ...   -309.074052474
E(0)                                       ...   -309.074052474
E(CORR)(strong-pairs)                      ...     -1.113905356
E(CORR)(weak-pairs)                        ...     -0.000490453
E(CORR)(corrected)                         ...     -1.114395809
E(TOT)                                     ...   -310.188448283
E(CCSD(T))                                 ...   -310.221438336
FINAL SINGLE POINT ENERGY      -310.221438335810

DIPOLE MOMENT
-------------
                                X             Y             Z
Electronic contribution:     -5.08382       0.00008      -0.67353
Nuclear contribution   :      5.62146      -0.00007       1.01032
                        -----------------------------------------
Total Dipole Moment    :      0.53763       0.00001       0.33679
                        -----------------------------------------
Magnitude (a.u.)       :      0.63441
Magnitude (Debye)      :      1.61254

Rotational constants in cm-1:     0.150384     0.073326     0.054016
Rotational constants in MHz :  4508.388242  2198.247567  1619.349859

                             ****ORCA TERMINATED NORMALLY****
TOTAL RUN TIME: 0 days 0 hours 2 minutes 27 seconds 244 msec
