                         Program Version 4.1.x  -  STABLE  -
|  1> ! RHF DLPNO-CCSD(T) cc-pVDZ RIJK cc-pVTZ/JK cc-pVDZ/C
|  2> ! KDIIS SOSCF TightSCF TightPNO
|  3>
|  4> %pal nprocs 4 end
|  5>
|  6> %maxcore 8000
|  7>
|  8> %scf maxiter 300
|  9>      shift shift 0.2 erroff 0.1 end
| 10> end
| 11>
| 12> * xyzfile 0 1 4_methylthiane_eq.xyz
| 13>
| 14>
| 15>                          ****END OF INPUT****

CARTESIAN COORDINATES (ANGSTROEM)
---------------------------------
  C     -0.582090   -1.276560   -0.163300
  C     -1.304550    0.000000    0.309630
  C     -0.582100    1.276570   -0.163320
  C      0.866110    1.382380    0.323960
  S      1.922720    0.000000   -0.262150
  C      0.866100   -1.382380    0.323950
  C     -2.771710   -0.000010   -0.139640
  H     -0.596980    1.316600   -1.260740
  H     -1.135320    2.155610    0.197000
  H      0.904210    1.419670    1.419820
  H      1.339850    2.294130   -0.052040
  H     -1.289040    0.000020    1.411740
  H      0.904220   -1.419680    1.419800
  H     -1.135280   -2.155600    0.197050
  H      1.339850   -2.294120   -0.052080
  H     -0.596970   -1.316610   -1.260720
  H     -3.300720   -0.885650    0.230570
  H     -3.300740    0.885640    0.230530
  H     -2.847250   -0.000040   -1.234190

 Total Charge           Charge          ....    0
 Multiplicity           Mult            ....    1
 Number of Electrons    NEL             ....   64
 Basis Dimension        Dim             ....  162

ORBITAL ENERGIES
----------------

  NO   OCC          E(Eh)            E(eV)
   0   2.0000     -91.931022     -2501.5703
   1   2.0000     -11.257527      -306.3329
   2   2.0000     -11.257515      -306.3325
   3   2.0000     -11.236000      -305.7471
   4   2.0000     -11.231850      -305.6342
   5   2.0000     -11.231796      -305.6327
   6   2.0000     -11.224455      -305.4329
   7   2.0000      -8.934147      -243.1105
   8   2.0000      -6.616010      -180.0308
   9   2.0000      -6.614589      -179.9921
  10   2.0000      -6.612412      -179.9329
  11   2.0000      -1.122115       -30.5343
  12   2.0000      -1.031657       -28.0728
  13   2.0000      -1.018146       -27.7052
  14   2.0000      -0.920995       -25.0615
  15   2.0000      -0.843759       -22.9599
  16   2.0000      -0.808786       -22.0082
  17   2.0000      -0.752657       -20.4808
  18   2.0000      -0.628074       -17.0908
  19   2.0000      -0.616125       -16.7656
  20   2.0000      -0.614291       -16.7157
  21   2.0000      -0.586551       -15.9609
  22   2.0000      -0.575322       -15.6553
  23   2.0000      -0.539017       -14.6674
  24   2.0000      -0.527860       -14.3638
  25   2.0000      -0.504591       -13.7306
  26   2.0000      -0.488108       -13.2821
  27   2.0000      -0.480296       -13.0695
  28   2.0000      -0.461220       -12.5504
  29   2.0000      -0.429871       -11.6974
  30   2.0000      -0.410281       -11.1643
  31   2.0000      -0.329360        -8.9623
  32   0.0000       0.176334         4.7983
  33   0.0000       0.188805         5.1376
  34   0.0000       0.193410         5.2630
  35   0.0000       0.207601         5.6491
  36   0.0000       0.219349         5.9688

MULLIKEN ATOMIC CHARGES
-----------------------
   0 C :    0.011673
   1 C :   -0.229620
   2 C :    0.011662
   3 C :   -0.111899
   4 S :   -0.075673
   5 C :   -0.111896
   6 C :    0.023805
   7 H :    0.035849
   8 H :    0.028518
   9 H :    0.058721
  10 H :    0.065419
  11 H :    0.015260
  12 H :    0.058719
  13 H :    0.028517
  14 H :    0.065420
  15 H :    0.035848
  16 H :    0.030015
  17 H :    0.030016
  18 H :    0.029647
Sum of atomic charges:    0.0000000

LOEWDIN ATOMIC CHARGES
----------------------
   0 C :   -0.039905
   1 C :   -0.046117
   2 C :   -0.039902
   3 C :   -0.126583
   4 S :    0.179401
   5 C :   -0.126580
   6 C :   -0.041548
   7 H :    0.020261
   8 H :    0.021847
   9 H :    0.014577
  10 H :    0.024590
  11 H :    0.015096
  12 H :    0.014576
  13 H :    0.021848
  14 H :    0.024592
  15 H :    0.020263
  16 H :    0.021420
  17 H :    0.021421
  18 H :    0.020743

  Mayer bond orders larger than 0.1
B(  0-C ,  1-C ) :   1.0174 B(  0-C ,  5-C ) :   1.0343 B(  0-C , 13-H ) :   0.9640
B(  0-C , 15-H ) :   0.9598 B(  1-C ,  2-C ) :   1.0174 B(  1-C ,  6-C ) :   1.0670
B(  1-C , 11-H ) :   0.9524 B(  2-C ,  3-C ) :   1.0343 B(  2-C ,  7-H ) :   0.9598
B(  2-C ,  8-H ) :   0.9640 B(  3-C ,  4-S ) :   1.0098 B(  3-C ,  9-H ) :   0.9627
B(  3-C , 10-H ) :   0.9733 B(  4-S ,  5-C ) :   1.0098 B(  5-C , 12-H ) :   0.9627
B(  5-C , 14-H ) :   0.9733 B(  6-C , 16-H ) :   0.9795 B(  6-C , 17-H ) :   0.9795
B(  6-C , 18-H ) :   0.9757

E(0)                                       ...   -631.749964252
E(0)                                       ...   -631.749964252
E(CORR)(strong-pairs)                      ...     -1.074975092
E(CORR)(weak-pairs)                        ...     -0.000434482
E(CORR)(corrected)                         ...     -1.075409574
E(TOT)                                     ...   -632.825373826
E(CCSD(T))                                 ...   -632.859372327
FINAL SINGLE POINT ENERGY      -632.859372327295

DIPOLE MOMENT
-------------
                                X             Y             Z
Electronic contribution:      9.40807       0.00001      -0.99086
Nuclear contribution   :    -10.10772      -0.00003       1.29774
                        -----------------------------------------
Total Dipole Moment    :     -0.69965      -0.00001       0.30688
                        -----------------------------------------
Magnitude (a.u.)       :      0.76399
Magnitude (Debye)      :      1.94192

Rotational constants in cm-1:     0.127840     0.053564     0.040997
Rotational constants in MHz :  3832.556792  1605.815603  1229.060916

                             ****ORCA TERMINATED NORMALLY****
TOTAL RUN TIME: 0 days 0 hours 2 minutes 37 seconds 112 msec
