                         Program Version 4.1.x  -  STABLE  -
|  1> ! RHF DLPNO-CCSD(T) cc-pVDZ RIJK cc-pVTZ/JK cc-pVDZ/C
|  2> ! KDIIS SOSCF TightSCF TightPNO
|  3>
|  4> %pal nprocs 4 end
|  5>
|  6> %maxcore 8000
|  7>
|  8> %scf maxiter 300
|  9>      shift shift 0.2 erroff 0.1 end
| 10> end
| 11>
| 12> * xyzfile 0 1 4_methylthiane_ax.xyz
| 13>
| 14>
| 15>                          ****END OF INPUT****

CARTESIAN COORDINATES (ANGSTROEM)
---------------------------------
  C      0.553420   -1.277230    0.661620
  C      1.403790    0.000000    0.473500
  C      0.553420    1.277240    0.661610
  C     -0.645840    1.388950   -0.285330
  S     -1.835780   -0.000010   -0.095710
  C     -0.645820   -1.388950   -0.285330
  C      2.179790   -0.000000   -0.855480
  H      0.186400    1.313180    1.694910
  H      1.194070    2.159020    0.518600
  H     -0.327140    1.446710   -1.331820
  H     -1.221580    2.294370   -0.071520
  H      2.151590    0.000020    1.278530
  H     -0.327120   -1.446700   -1.331820
  H      1.194060   -2.159030    0.518620
  H     -1.221550   -2.294370   -0.071500
  H      0.186400   -1.313160    1.694910
  H      2.822170    0.884930   -0.930640
  H      2.822160   -0.884940   -0.930640
  H      1.520500    0.000010   -1.729830

 Total Charge           Charge          ....    0
 Multiplicity           Mult            ....    1
 Number of Electrons    NEL             ....   64
 Basis Dimension        Dim             ....  162

ORBITAL ENERGIES
----------------

  NO   OCC          E(Eh)            E(eV)
   0   2.0000     -91.930476     -2501.5554
   1   2.0000     -11.256775      -306.3124
   2   2.0000     -11.256763      -306.3121
   3   2.0000     -11.236588      -305.7631
   4   2.0000     -11.231989      -305.6380
   5   2.0000     -11.231940      -305.6366
   6   2.0000     -11.224989      -305.4475
   7   2.0000      -8.933535      -243.0939
   8   2.0000      -6.615400      -180.0142
   9   2.0000      -6.613968      -179.9752
  10   2.0000      -6.611802      -179.9163
  11   2.0000      -1.121047       -30.5053
  12   2.0000      -1.026343       -27.9282
  13   2.0000      -1.017789       -27.6955
  14   2.0000      -0.926541       -25.2125
  15   2.0000      -0.842239       -22.9185
  16   2.0000      -0.819249       -22.2929
  17   2.0000      -0.727131       -19.7862
  18   2.0000      -0.655295       -17.8315
  19   2.0000      -0.624208       -16.9856
  20   2.0000      -0.603527       -16.4228
  21   2.0000      -0.569199       -15.4887
  22   2.0000      -0.561000       -15.2656
  23   2.0000      -0.551709       -15.0128
  24   2.0000      -0.539802       -14.6888
  25   2.0000      -0.515064       -14.0156
  26   2.0000      -0.482940       -13.1415
  27   2.0000      -0.471728       -12.8364
  28   2.0000      -0.460594       -12.5334
  29   2.0000      -0.428585       -11.6624
  30   2.0000      -0.409108       -11.1324
  31   2.0000      -0.328478        -8.9383
  32   0.0000       0.169310         4.6072
  33   0.0000       0.189424         5.1545
  34   0.0000       0.195052         5.3076
  35   0.0000       0.218608         5.9486
  36   0.0000       0.221950         6.0396

MULLIKEN ATOMIC CHARGES
-----------------------
   0 C :    0.017476
   1 C :   -0.207865
   2 C :    0.017471
   3 C :   -0.123216
   4 S :   -0.079544
   5 C :   -0.123215
   6 C :    0.004476
   7 H :    0.036855
   8 H :    0.027320
   9 H :    0.061094
  10 H :    0.065960
  11 H :    0.019488
  12 H :    0.061096
  13 H :    0.027320
  14 H :    0.065960
  15 H :    0.036853
  16 H :    0.031402
  17 H :    0.031402
  18 H :    0.029666
Sum of atomic charges:    0.0000000

LOEWDIN ATOMIC CHARGES
----------------------
   0 C :   -0.039129
   1 C :   -0.043593
   2 C :   -0.039128
   3 C :   -0.127691
   4 S :    0.177496
   5 C :   -0.127690
   6 C :   -0.047453
   7 H :    0.022207
   8 H :    0.021137
   9 H :    0.013570
  10 H :    0.024938
  11 H :    0.022761
  12 H :    0.013570
  13 H :    0.021139
  14 H :    0.024938
  15 H :    0.022206
  16 H :    0.022286
  17 H :    0.022286
  18 H :    0.016150

  Mayer bond orders larger than 0.1
B(  0-C ,  1-C ) :   1.0377 B(  0-C ,  5-C ) :   1.0210 B(  0-C , 13-H ) :   0.9643
B(  0-C , 15-H ) :   0.9648 B(  1-C ,  2-C ) :   1.0377 B(  1-C ,  6-C ) :   1.0340
B(  1-C , 11-H ) :   0.9617 B(  2-C ,  3-C ) :   1.0209 B(  2-C ,  7-H ) :   0.9648
B(  2-C ,  8-H ) :   0.9643 B(  3-C ,  4-S ) :   1.0069 B(  3-C ,  9-H ) :   0.9645
B(  3-C , 10-H ) :   0.9742 B(  4-S ,  5-C ) :   1.0069 B(  5-C , 12-H ) :   0.9645
B(  5-C , 14-H ) :   0.9742 B(  6-C , 16-H ) :   0.9813 B(  6-C , 17-H ) :   0.9813
B(  6-C , 18-H ) :   0.9771

E(0)                                       ...   -631.746254112
E(0)                                       ...   -631.746254112
E(CORR)(strong-pairs)                      ...     -1.075674412
E(CORR)(weak-pairs)                        ...     -0.000436951
E(CORR)(corrected)                         ...     -1.076111363
E(TOT)                                     ...   -632.822365475
E(CCSD(T))                                 ...   -632.856435933
FINAL SINGLE POINT ENERGY      -632.856435933413

DIPOLE MOMENT
-------------
                                X             Y             Z
Electronic contribution:     -8.56581      -0.00005       0.68845
Nuclear contribution   :      9.34564       0.00005      -0.71281
                        -----------------------------------------
Total Dipole Moment    :      0.77983       0.00000      -0.02437
                        -----------------------------------------
Magnitude (a.u.)       :      0.78022
Magnitude (Debye)      :      1.98315

Rotational constants in cm-1:     0.108505     0.061242     0.048229
Rotational constants in MHz :  3252.911261  1835.990445  1445.881202

                             ****ORCA TERMINATED NORMALLY****
TOTAL RUN TIME: 0 days 0 hours 2 minutes 53 seconds 912 msec
