                         Program Version 4.1.x  -  STABLE  -
|  1> ! RHF DLPNO-CCSD(T) cc-pVDZ RIJK cc-pVTZ/JK cc-pVDZ/C
|  2> ! KDIIS SOSCF TightSCF TightPNO
|  3>
|  4> %pal nprocs 4 end
|  5>
|  6> %maxcore 8000
|  7>
|  8> %scf maxiter 300
|  9>      shift shift 0.2 erroff 0.1 end
| 10> end
| 11>
| 12> * xyzfile 0 1 4_methylpiperidine_ax.xyz
| 13>
| 14>
| 15>                          ****END OF INPUT****

CARTESIAN COORDINATES (ANGSTROEM)
---------------------------------
  C      1.120710    0.000010    0.494480
  C      0.234900    1.261550    0.617100
  C     -0.981340    1.217550   -0.316500
  N     -1.755310   -0.000020   -0.055600
  C     -0.981300   -1.217570   -0.316490
  C      0.234940   -1.261530    0.617110
  C      1.975960    0.000010   -0.784630
  H     -2.611670   -0.000040   -0.601890
  H     -1.624860    2.084370   -0.129730
  H     -0.647310    1.282750   -1.370270
  H     -0.647260   -1.282760   -1.370260
  H     -1.624810   -2.084400   -0.129720
  H     -0.132960    1.341100    1.647770
  H      0.827780    2.162010    0.411120
  H      0.827840   -2.161980    0.411140
  H     -0.132920   -1.341070    1.647780
  H      1.817390    0.000030    1.344130
  H      2.621820    0.885160   -0.820680
  H      2.621830   -0.885140   -0.820640
  H      1.369130   -0.000000   -1.695900

 Total Charge           Charge          ....    0
 Multiplicity           Mult            ....    1
 Number of Electrons    NEL             ....   56
 Basis Dimension        Dim             ....  163

ORBITAL ENERGIES
----------------

  NO   OCC          E(Eh)            E(eV)
   0   2.0000     -15.534759      -422.7223
   1   2.0000     -11.245905      -306.0166
   2   2.0000     -11.245888      -306.0162
   3   2.0000     -11.225832      -305.4704
   4   2.0000     -11.217081      -305.2323
   5   2.0000     -11.217052      -305.2315
   6   2.0000     -11.216503      -305.2166
   7   2.0000      -1.202211       -32.7138
   8   2.0000      -1.071555       -29.1585
   9   2.0000      -1.006633       -27.3919
  10   2.0000      -0.937607       -25.5136
  11   2.0000      -0.837384       -22.7864
  12   2.0000      -0.835803       -22.7433
  13   2.0000      -0.722557       -19.6618
  14   2.0000      -0.677197       -18.4275
  15   2.0000      -0.626655       -17.0522
  16   2.0000      -0.612330       -16.6623
  17   2.0000      -0.574337       -15.6285
  18   2.0000      -0.569066       -15.4851
  19   2.0000      -0.565594       -15.3906
  20   2.0000      -0.526369       -14.3232
  21   2.0000      -0.508449       -13.8356
  22   2.0000      -0.505124       -13.7451
  23   2.0000      -0.481360       -13.0985
  24   2.0000      -0.452214       -12.3054
  25   2.0000      -0.433453       -11.7949
  26   2.0000      -0.430141       -11.7047
  27   2.0000      -0.357694        -9.7333
  28   0.0000       0.175081         4.7642
  29   0.0000       0.199768         5.4360
  30   0.0000       0.215368         5.8605
  31   0.0000       0.222065         6.0427
  32   0.0000       0.243483         6.6255

MULLIKEN ATOMIC CHARGES
-----------------------
   0 C :   -0.219071
   1 C :    0.012961
   2 C :    0.102289
   3 N :   -0.370751
   4 C :    0.102284
   5 C :    0.012969
   6 C :    0.010315
   7 H :    0.093333
   8 H :    0.025850
   9 H :    0.005597
  10 H :    0.005598
  11 H :    0.025851
  12 H :    0.030271
  13 H :    0.017303
  14 H :    0.017302
  15 H :    0.030270
  16 H :    0.013828
  17 H :    0.027967
  18 H :    0.027968
  19 H :    0.027868
Sum of atomic charges:    0.0000000

LOEWDIN ATOMIC CHARGES
----------------------
   0 C :   -0.042861
   1 C :   -0.027337
   2 C :   -0.012463
   3 N :   -0.042811
   4 C :   -0.012461
   5 C :   -0.027339
   6 C :   -0.048027
   7 H :    0.033865
   8 H :    0.017427
   9 H :   -0.003264
  10 H :   -0.003264
  11 H :    0.017428
  12 H :    0.020885
  13 H :    0.017078
  14 H :    0.017078
  15 H :    0.020886
  16 H :    0.018942
  17 H :    0.020543
  18 H :    0.020544
  19 H :    0.015149

  Mayer bond orders larger than 0.1
B(  0-C ,  1-C ) :   1.0374 B(  0-C ,  5-C ) :   1.0374 B(  0-C ,  6-C ) :   1.0333
B(  0-C , 16-H ) :   0.9649 B(  1-C ,  2-C ) :   1.0405 B(  1-C , 12-H ) :   0.9620
B(  1-C , 13-H ) :   0.9697 B(  2-C ,  3-N ) :   1.0198 B(  2-C ,  8-H ) :   0.9751
B(  2-C ,  9-H ) :   0.9608 B(  3-N ,  4-C ) :   1.0198 B(  3-N ,  7-H ) :   0.9707
B(  4-C ,  5-C ) :   1.0405 B(  4-C , 10-H ) :   0.9608 B(  4-C , 11-H ) :   0.9751
B(  5-C , 14-H ) :   0.9697 B(  5-C , 15-H ) :   0.9620 B(  6-C , 17-H ) :   0.9812
B(  6-C , 18-H ) :   0.9812 B(  6-C , 19-H ) :   0.9777

E(0)                                       ...   -289.242420183
E(0)                                       ...   -289.242420183
E(CORR)(strong-pairs)                      ...     -1.108701207
E(CORR)(weak-pairs)                        ...     -0.000471922
E(CORR)(corrected)                         ...     -1.109173129
E(TOT)                                     ...   -290.351593312
E(CCSD(T))                                 ...   -290.385251547
FINAL SINGLE POINT ENERGY      -290.385251546664

DIPOLE MOMENT
-------------
                                X             Y             Z
Electronic contribution:     -2.78827      -0.00003       1.24682
Nuclear contribution   :      2.81410       0.00003      -1.56680
                        -----------------------------------------
Total Dipole Moment    :      0.02583       0.00000      -0.31998
                        -----------------------------------------
Magnitude (a.u.)       :      0.32102
Magnitude (Debye)      :      0.81598

Rotational constants in cm-1:     0.121689     0.083849     0.063949
Rotational constants in MHz :  3648.148585  2513.728870  1917.142957

                             ****ORCA TERMINATED NORMALLY****
TOTAL RUN TIME: 0 days 0 hours 2 minutes 54 seconds 709 msec
