                         Program Version 4.1.x  -  STABLE  -
|  1> ! RHF DLPNO-CCSD(T) cc-pVDZ RIJK cc-pVTZ/JK cc-pVDZ/C
|  2> ! KDIIS SOSCF TightSCF TightPNO
|  3>
|  4> %pal nprocs 4 end
|  5>
|  6> %maxcore 8000
|  7>
|  8> %scf maxiter 300
|  9>      shift shift 0.2 erroff 0.1 end
| 10> end
| 11>
| 12> * xyzfile 0 1 4_methylpiperidine_eq.xyz
| 13>
| 14>
| 15>                          ****END OF INPUT****

CARTESIAN COORDINATES (ANGSTROEM)
---------------------------------
  C     -1.012590    0.000000    0.330530
  C     -0.278490    1.259370   -0.166970
  C      1.212670    1.216810    0.184980
  N      1.815010   -0.000020   -0.364560
  C      1.212640   -1.216830    0.184980
  C     -0.278530   -1.259350   -0.166970
  C     -2.491450    0.000010   -0.072760
  H      2.819410   -0.000030   -0.213770
  H      1.729610    2.084010   -0.240560
  H      1.322130    1.275250    1.286970
  H      1.322090   -1.275270    1.286970
  H      1.729550   -2.084040   -0.240560
  H     -0.381580    1.332420   -1.258190
  H     -0.735430    2.158590    0.266330
  H     -0.735490   -2.158550    0.266350
  H     -0.381610   -1.332430   -1.258190
  H     -0.960670    0.000000    1.431480
  H     -3.009410   -0.885760    0.313450
  H     -3.009400    0.885790    0.313440
  H     -2.599800    0.000010   -1.164530

 Total Charge           Charge          ....    0
 Multiplicity           Mult            ....    1
 Number of Electrons    NEL             ....   56
 Basis Dimension        Dim             ....  163

ORBITAL ENERGIES
----------------

  NO   OCC          E(Eh)            E(eV)
   0   2.0000     -15.535395      -422.7396
   1   2.0000     -11.246693      -306.0381
   2   2.0000     -11.246676      -306.0376
   3   2.0000     -11.225027      -305.4485
   4   2.0000     -11.216914      -305.2278
   5   2.0000     -11.216884      -305.2269
   6   2.0000     -11.216639      -305.2203
   7   2.0000      -1.203476       -32.7482
   8   2.0000      -1.074309       -29.2334
   9   2.0000      -1.007268       -27.4091
  10   2.0000      -0.940806       -25.6006
  11   2.0000      -0.838893       -22.8274
  12   2.0000      -0.819499       -22.2997
  13   2.0000      -0.747417       -20.3382
  14   2.0000      -0.674597       -18.3567
  15   2.0000      -0.607336       -16.5265
  16   2.0000      -0.606237       -16.4966
  17   2.0000      -0.599922       -16.3247
  18   2.0000      -0.575670       -15.6648
  19   2.0000      -0.539513       -14.6809
  20   2.0000      -0.529979       -14.4215
  21   2.0000      -0.518075       -14.0975
  22   2.0000      -0.503314       -13.6959
  23   2.0000      -0.481543       -13.1035
  24   2.0000      -0.453348       -12.3362
  25   2.0000      -0.434097       -11.8124
  26   2.0000      -0.431051       -11.7295
  27   2.0000      -0.359399        -9.7797
  28   0.0000       0.181682         4.9438
  29   0.0000       0.197696         5.3796
  30   0.0000       0.208996         5.6871
  31   0.0000       0.215233         5.8568
  32   0.0000       0.241415         6.5692

MULLIKEN ATOMIC CHARGES
-----------------------
   0 C :   -0.242275
   1 C :    0.007932
   2 C :    0.112981
   3 N :   -0.371992
   4 C :    0.112986
   5 C :    0.007938
   6 C :    0.029546
   7 H :    0.094040
   8 H :    0.026050
   9 H :    0.003321
  10 H :    0.003320
  11 H :    0.026048
  12 H :    0.028455
  13 H :    0.019670
  14 H :    0.019668
  15 H :    0.028455
  16 H :    0.012316
  17 H :    0.027261
  18 H :    0.027260
  19 H :    0.027020
Sum of atomic charges:   -0.0000000

LOEWDIN ATOMIC CHARGES
----------------------
   0 C :   -0.046456
   1 C :   -0.027932
   2 C :   -0.010894
   3 N :   -0.042391
   4 C :   -0.010893
   5 C :   -0.027934
   6 C :   -0.043470
   7 H :    0.034320
   8 H :    0.017193
   9 H :   -0.003203
  10 H :   -0.003204
  11 H :    0.017192
  12 H :    0.018593
  13 H :    0.018018
  14 H :    0.018019
  15 H :    0.018594
  16 H :    0.014206
  17 H :    0.020334
  18 H :    0.020334
  19 H :    0.019575

  Mayer bond orders larger than 0.1
B(  0-C ,  1-C ) :   1.0226 B(  0-C ,  5-C ) :   1.0226 B(  0-C ,  6-C ) :   1.0643
B(  0-C , 16-H ) :   0.9518 B(  1-C ,  2-C ) :   1.0532 B(  1-C , 12-H ) :   0.9570
B(  1-C , 13-H ) :   0.9686 B(  2-C ,  3-N ) :   1.0236 B(  2-C ,  8-H ) :   0.9736
B(  2-C ,  9-H ) :   0.9580 B(  3-N ,  4-C ) :   1.0236 B(  3-N ,  7-H ) :   0.9705
B(  4-C ,  5-C ) :   1.0532 B(  4-C , 10-H ) :   0.9580 B(  4-C , 11-H ) :   0.9736
B(  5-C , 14-H ) :   0.9686 B(  5-C , 15-H ) :   0.9570 B(  6-C , 17-H ) :   0.9794
B(  6-C , 18-H ) :   0.9794 B(  6-C , 19-H ) :   0.9753

E(0)                                       ...   -289.246599562
E(0)                                       ...   -289.246599562
E(CORR)(strong-pairs)                      ...     -1.107978083
E(CORR)(weak-pairs)                        ...     -0.000461359
E(CORR)(corrected)                         ...     -1.108439442
E(TOT)                                     ...   -290.355039004
E(CCSD(T))                                 ...   -290.388628434
FINAL SINGLE POINT ENERGY      -290.388628433886

DIPOLE MOMENT
-------------
                                X             Y             Z
Electronic contribution:      3.18613      -0.00001      -0.50146
Nuclear contribution   :     -3.05403       0.00001       0.83462
                        -----------------------------------------
Total Dipole Moment    :      0.13210      -0.00000       0.33317
                        -----------------------------------------
Magnitude (a.u.)       :      0.35840
Magnitude (Debye)      :      0.91098

Rotational constants in cm-1:     0.146055     0.073211     0.053456
Rotational constants in MHz :  4378.628837  2194.798349  1602.579685

                             ****ORCA TERMINATED NORMALLY****
TOTAL RUN TIME: 0 days 0 hours 2 minutes 40 seconds 464 msec
