                         Program Version 4.1.x  -  STABLE  -
|  1> ! RHF DLPNO-CCSD(T) cc-pVDZ RIJK cc-pVTZ/JK cc-pVDZ/C
|  2> ! KDIIS SOSCF TightSCF TightPNO
|  3>
|  4> %pal nprocs 8 end
|  5>
|  6> %maxcore 8000
|  7>
|  8> %scf maxiter 300
|  9>      shift shift 0.2 erroff 0.1 end
| 10> end
| 11>
| 12> * xyzfile 0 1 aagtxgtx16080.xyz
| 13>
| 14>
| 15>                          ****END OF INPUT****

CARTESIAN COORDINATES (ANGSTROEM)
---------------------------------
  C      3.311100   -0.534600    0.658400
  C      2.250300   -1.634400    0.627900
  C      2.684200    0.768200    0.157600
  O      2.169400    0.570900   -1.181200
  C      1.648800   -1.762600   -0.775200
  C      1.158800   -0.401000   -1.296200
  O     -0.000500   -0.005300   -0.568400
  C     -1.158700    0.394500   -1.296300
  O     -2.172700   -0.573500   -1.179700
  C     -1.643800    1.758700   -0.777200
  C     -2.688200   -0.767300    0.159400
  C     -3.308800    0.538800    0.659600
  C     -2.243800    1.634300    0.626800
  H      4.137300   -0.823100   -0.010800
  O      3.795700   -0.313400    1.975900
  H      1.456700   -1.367800    1.343600
  O      2.880500   -2.844600    1.035600
  H      1.858200    1.044500    0.825900
  C      3.640600    1.947600    0.067800
  O      0.640700   -2.761200   -0.827300
  H      2.435800   -2.107800   -1.454300
  H      0.921700   -0.464800   -2.363000
  H     -0.921500    0.456100   -2.363200
  H     -2.430800    2.104600   -1.455900
  O     -0.633500    2.754800   -0.832800
  H     -1.863300   -1.047500    0.827600
  C     -3.651000   -1.941600    0.070600
  O     -3.792900    0.320800    1.977800
  H     -4.134500    0.830000   -0.009000
  O     -2.869000    2.847400    1.034000
  H     -1.450300    1.365500    1.341800
  H      4.468200    1.707400   -0.614900
  H      4.053300    2.151100    1.057500
  O      2.957200    3.126300   -0.347700
  H     -4.477600   -1.696800   -0.611800
  H     -4.064400   -2.142200    1.060600
  O     -2.974900   -3.124500   -0.344700
  H     -2.678200   -2.991300   -1.255700
  H      0.174000    2.417500   -0.413000
  H     -2.232800    3.568400    0.918500
  H     -4.036600    1.182700    2.345900
  H     -0.167400   -2.422700   -0.409700
  H      2.246100   -3.567800    0.924000
  H      4.043200   -1.173900    2.344600
  H      2.664300    2.992700   -1.259900

 Total Charge           Charge          ....    0
 Multiplicity           Mult            ....    1
 Number of Electrons    NEL             ....  182
 Basis Dimension        Dim             ....  432

ORBITAL ENERGIES
----------------

  NO   OCC          E(Eh)            E(eV)
   0   2.0000     -20.603469      -560.6489
   1   2.0000     -20.594719      -560.4108
   2   2.0000     -20.594687      -560.4099
   3   2.0000     -20.579967      -560.0094
   4   2.0000     -20.579948      -560.0089
   5   2.0000     -20.573688      -559.8385
   6   2.0000     -20.573611      -559.8364
   7   2.0000     -20.570042      -559.7393
   8   2.0000     -20.569992      -559.7379
   9   2.0000     -20.562048      -559.5218
  10   2.0000     -20.561801      -559.5150
  11   2.0000     -11.370854      -309.4167
  12   2.0000     -11.370827      -309.4159
  13   2.0000     -11.305525      -307.6390
  14   2.0000     -11.305510      -307.6386
  15   2.0000     -11.302148      -307.5471
  16   2.0000     -11.302077      -307.5452
  17   2.0000     -11.300179      -307.4935
  18   2.0000     -11.300113      -307.4917
  19   2.0000     -11.298380      -307.4446
  20   2.0000     -11.298330      -307.4432
  21   2.0000     -11.287665      -307.1530
  22   2.0000     -11.287516      -307.1489
  23   2.0000      -1.466967       -39.9182
  24   2.0000      -1.423295       -38.7298
  25   2.0000      -1.392915       -37.9031
  26   2.0000      -1.392802       -37.9001
  27   2.0000      -1.383896       -37.6577
  28   2.0000      -1.378130       -37.5008
  29   2.0000      -1.368124       -37.2285
  30   2.0000      -1.359017       -36.9807
  31   2.0000      -1.358893       -36.9773
  32   2.0000      -1.358812       -36.9752
  33   2.0000      -1.352577       -36.8055
  34   2.0000      -1.074056       -29.2266
  35   2.0000      -1.073715       -29.2173
  36   2.0000      -1.070510       -29.1300
  37   2.0000      -1.041754       -28.3476
  38   2.0000      -0.956840       -26.0369
  39   2.0000      -0.941017       -25.6064
  40   2.0000      -0.894613       -24.3436
  41   2.0000      -0.879359       -23.9286
  42   2.0000      -0.854310       -23.2469
  43   2.0000      -0.853328       -23.2202
  44   2.0000      -0.824804       -22.4441
  45   2.0000      -0.791812       -21.5463
  46   2.0000      -0.753018       -20.4906
  47   2.0000      -0.752184       -20.4680
  48   2.0000      -0.733192       -19.9512
  49   2.0000      -0.730562       -19.8796
  50   2.0000      -0.722537       -19.6612
  51   2.0000      -0.715256       -19.4631
  52   2.0000      -0.712520       -19.3887
  53   2.0000      -0.684622       -18.6295
  54   2.0000      -0.680438       -18.5157
  55   2.0000      -0.672629       -18.3032
  56   2.0000      -0.665625       -18.1126
  57   2.0000      -0.664501       -18.0820
  58   2.0000      -0.653790       -17.7905
  59   2.0000      -0.635529       -17.2936
  60   2.0000      -0.630470       -17.1560
  61   2.0000      -0.630426       -17.1548
  62   2.0000      -0.617399       -16.8003
  63   2.0000      -0.611683       -16.6447
  64   2.0000      -0.597314       -16.2537
  65   2.0000      -0.595590       -16.2068
  66   2.0000      -0.588130       -16.0038
  67   2.0000      -0.581348       -15.8193
  68   2.0000      -0.574420       -15.6308
  69   2.0000      -0.565230       -15.3807
  70   2.0000      -0.557688       -15.1755
  71   2.0000      -0.555711       -15.1217
  72   2.0000      -0.547418       -14.8960
  73   2.0000      -0.541109       -14.7243
  74   2.0000      -0.538829       -14.6623
  75   2.0000      -0.536322       -14.5941
  76   2.0000      -0.530509       -14.4359
  77   2.0000      -0.508229       -13.8296
  78   2.0000      -0.507003       -13.7962
  79   2.0000      -0.503017       -13.6878
  80   2.0000      -0.489383       -13.3168
  81   2.0000      -0.486625       -13.2417
  82   2.0000      -0.475176       -12.9302
  83   2.0000      -0.463986       -12.6257
  84   2.0000      -0.460919       -12.5422
  85   2.0000      -0.456241       -12.4149
  86   2.0000      -0.455847       -12.4042
  87   2.0000      -0.440796       -11.9947
  88   2.0000      -0.438575       -11.9342
  89   2.0000      -0.433293       -11.7905
  90   2.0000      -0.426335       -11.6012
  91   0.0000       0.155491         4.2311
  92   0.0000       0.172536         4.6949
  93   0.0000       0.172869         4.7040
  94   0.0000       0.188856         5.1390
  95   0.0000       0.190603         5.1866

MULLIKEN ATOMIC CHARGES
-----------------------
   0 C :    0.221676
   1 C :    0.166256
   2 C :    0.056599
   3 O :   -0.526629
   4 C :    0.209741
   5 C :    0.434325
   6 O :   -0.557576
   7 C :    0.434261
   8 O :   -0.526560
   9 C :    0.209912
  10 C :    0.057301
  11 C :    0.221306
  12 C :    0.166073
  13 H :    0.027447
  14 O :   -0.389681
  15 H :    0.026166
  16 O :   -0.401447
  17 H :    0.039900
  18 C :    0.306358
  19 O :   -0.403016
  20 H :    0.046534
  21 H :    0.048249
  22 H :    0.048231
  23 H :    0.046466
  24 O :   -0.403247
  25 H :    0.039960
  26 C :    0.306196
  27 O :   -0.389693
  28 H :    0.027409
  29 O :   -0.401511
  30 H :    0.026236
  31 H :    0.026192
  32 H :    0.061729
  33 O :   -0.403652
  34 H :    0.026054
  35 H :    0.061692
  36 O :   -0.403591
  37 H :    0.175823
  38 H :    0.185311
  39 H :    0.184243
  40 H :    0.186761
  41 H :    0.185220
  42 H :    0.184231
  43 H :    0.186734
  44 H :    0.176012
Sum of atomic charges:   -0.0000000

LOEWDIN ATOMIC CHARGES
----------------------
   0 C :    0.003082
   1 C :   -0.010520
   2 C :    0.004388
   3 O :   -0.072252
   4 C :   -0.012167
   5 C :    0.022391
   6 O :   -0.085071
   7 C :    0.022603
   8 O :   -0.072166
   9 C :   -0.012245
  10 C :    0.004558
  11 C :    0.003032
  12 C :   -0.010493
  13 H :    0.012981
  14 O :   -0.063774
  15 H :    0.011915
  16 O :   -0.070900
  17 H :    0.011759
  18 C :    0.030937
  19 O :   -0.058692
  20 H :    0.029716
  21 H :    0.020568
  22 H :    0.020566
  23 H :    0.029713
  24 O :   -0.058612
  25 H :    0.011820
  26 C :    0.030846
  27 O :   -0.063770
  28 H :    0.012977
  29 O :   -0.070993
  30 H :    0.011906
  31 H :    0.012243
  32 H :    0.032362
  33 O :   -0.075490
  34 H :    0.012193
  35 H :    0.032351
  36 O :   -0.075571
  37 H :    0.049153
  38 H :    0.047904
  39 H :    0.057700
  40 H :    0.059010
  41 H :    0.048056
  42 H :    0.057741
  43 H :    0.058968
  44 H :    0.049277

  Mayer bond orders larger than 0.1
B(  0-C ,  1-C ) :   1.0210 B(  0-C ,  2-C ) :   0.9950 B(  0-C , 13-H ) :   0.9437
B(  0-C , 14-O ) :   0.9890 B(  1-C ,  4-C ) :   1.0023 B(  1-C , 15-H ) :   0.9452
B(  1-C , 16-O ) :   0.9867 B(  2-C ,  3-O ) :   0.8823 B(  2-C , 17-H ) :   0.9410
B(  2-C , 18-C ) :   1.0529 B(  3-O ,  5-C ) :   0.9926 B(  4-C ,  5-C ) :   1.0105
B(  4-C , 19-O ) :   0.9808 B(  4-C , 20-H ) :   0.9456 B(  5-C ,  6-O ) :   0.9054
B(  5-C , 21-H ) :   0.9679 B(  6-O ,  7-C ) :   0.9049 B(  7-C ,  8-O ) :   0.9931
B(  7-C ,  9-C ) :   1.0104 B(  7-C , 22-H ) :   0.9680 B(  8-O , 10-C ) :   0.8821
B(  9-C , 12-C ) :   1.0024 B(  9-C , 23-H ) :   0.9456 B(  9-C , 24-O ) :   0.9810
B( 10-C , 11-C ) :   0.9950 B( 10-C , 25-H ) :   0.9410 B( 10-C , 26-C ) :   1.0531
B( 11-C , 12-C ) :   1.0211 B( 11-C , 27-O ) :   0.9890 B( 11-C , 28-H ) :   0.9437
B( 12-C , 29-O ) :   0.9867 B( 12-C , 30-H ) :   0.9451 B( 14-O , 43-H ) :   0.9851
B( 16-O , 42-H ) :   0.9851 B( 18-C , 31-H ) :   0.9635 B( 18-C , 32-H ) :   0.9624
B( 18-C , 33-O ) :   0.9881 B( 19-O , 41-H ) :   0.9780 B( 24-O , 38-H ) :   0.9775
B( 26-C , 34-H ) :   0.9634 B( 26-C , 35-H ) :   0.9623 B( 26-C , 36-O ) :   0.9882
B( 27-O , 40-H ) :   0.9851 B( 29-O , 39-H ) :   0.9851 B( 33-O , 44-H ) :   0.9911
B( 36-O , 37-H ) :   0.9913

E(0)                                       ...  -1290.772938350
E(0)                                       ...  -1290.772938350
E(CORR)(strong-pairs)                      ...     -3.828882200
E(CORR)(weak-pairs)                        ...     -0.005691873
E(CORR)(corrected)                         ...     -3.834574073
E(TOT)                                     ...  -1294.607512423
E(CCSD(T))                                 ...  -1294.715114815
FINAL SINGLE POINT ENERGY     -1294.715114815113

DIPOLE MOMENT
-------------
                                X             Y             Z
Electronic contribution:      0.00704      -0.01222      -1.48743
Nuclear contribution   :      0.00159       0.01474       0.77938
                        -----------------------------------------
Total Dipole Moment    :      0.00863       0.00252      -0.70806
                        -----------------------------------------
Magnitude (a.u.)       :      0.70811
Magnitude (Debye)      :      1.79988

Rotational constants in cm-1:     0.011064     0.006277     0.004805
Rotational constants in MHz :   331.702775   188.183494   144.039984

                             ****ORCA TERMINATED NORMALLY****
TOTAL RUN TIME: 0 days 0 hours 25 minutes 45 seconds 375 msec
