                         Program Version 4.1.x  -  STABLE  -
|  1> ! RHF DLPNO-CCSD(T) cc-pVDZ RIJK cc-pVTZ/JK cc-pVDZ/C
|  2> ! KDIIS SOSCF TightSCF TightPNO
|  3>
|  4> %pal nprocs 8 end
|  5>
|  6> %maxcore 8000
|  7>
|  8> %scf maxiter 300
|  9>      shift shift 0.2 erroff 0.1 end
| 10> end
| 11>
| 12> * xyzfile 0 1 aagtxgtx6060.xyz
| 13>
| 14>
| 15>                          ****END OF INPUT****

CARTESIAN COORDINATES (ANGSTROEM)
---------------------------------
  C      3.570300    0.275800   -0.337500
  C      2.603800    1.027200   -1.249500
  C      2.785800   -0.646400    0.600200
  O      1.803000    0.122800    1.334600
  C      1.559200    1.784200   -0.424300
  C      0.866600    0.845000    0.574500
  O     -0.000000   -0.000000   -0.190800
  C     -0.866600   -0.845000    0.574500
  O     -1.803000   -0.122800    1.334600
  C     -1.559200   -1.784200   -0.424300
  C     -2.785800    0.646400    0.600200
  C     -3.570300   -0.275800   -0.337500
  C     -2.603800   -1.027200   -1.249500
  H      4.123500    1.015000    0.263800
  O      4.473700   -0.527600   -1.085100
  H      2.096000    0.294300   -1.896200
  O      3.375900    1.917600   -2.048200
  H      2.276500   -1.422500    0.015000
  C      3.661100   -1.314200    1.654700
  O      0.634100    2.462600   -1.266600
  H      2.066900    2.565700    0.150200
  H      0.272500    1.407000    1.299800
  H     -0.272500   -1.407000    1.299800
  H     -2.067000   -2.565700    0.150100
  O     -0.634100   -2.462600   -1.266600
  H     -2.276500    1.422500    0.015100
  C     -3.661100    1.314200    1.654700
  O     -4.473700    0.527700   -1.085100
  H     -4.123500   -1.015000    0.263800
  O     -3.375900   -1.917500   -2.048300
  H     -2.096000   -0.294200   -1.896200
  H      4.187700   -0.539500    2.232200
  H      4.404000   -1.939500    1.156200
  O      2.909000   -2.164800    2.508700
  H     -4.187700    0.539500    2.232200
  H     -4.404000    1.939500    1.156200
  O     -2.909000    2.164800    2.508700
  H     -2.256200    1.616800    2.965500
  H      0.010800   -1.811400   -1.581300
  H     -2.765100   -2.488500   -2.537200
  H     -4.877700   -0.037400   -1.759600
  H     -0.010900    1.811400   -1.581300
  H      2.765100    2.488500   -2.537100
  H      4.877700    0.037400   -1.759600
  H      2.256200   -1.616800    2.965400

 Total Charge           Charge          ....    0
 Multiplicity           Mult            ....    1
 Number of Electrons    NEL             ....  182
 Basis Dimension        Dim             ....  432

ORBITAL ENERGIES
----------------

  NO   OCC          E(Eh)            E(eV)
   0   2.0000     -20.609189      -560.8045
   1   2.0000     -20.596492      -560.4591
   2   2.0000     -20.596489      -560.4590
   3   2.0000     -20.585730      -560.1662
   4   2.0000     -20.585729      -560.1662
   5   2.0000     -20.577167      -559.9332
   6   2.0000     -20.577157      -559.9329
   7   2.0000     -20.571953      -559.7913
   8   2.0000     -20.571945      -559.7911
   9   2.0000     -20.557330      -559.3934
  10   2.0000     -20.557327      -559.3933
  11   2.0000     -11.368533      -309.3535
  12   2.0000     -11.368514      -309.3530
  13   2.0000     -11.308968      -307.7327
  14   2.0000     -11.308962      -307.7325
  15   2.0000     -11.302868      -307.5667
  16   2.0000     -11.302863      -307.5665
  17   2.0000     -11.302228      -307.5493
  18   2.0000     -11.302222      -307.5491
  19   2.0000     -11.301623      -307.5328
  20   2.0000     -11.301617      -307.5326
  21   2.0000     -11.285638      -307.0978
  22   2.0000     -11.285636      -307.0978
  23   2.0000      -1.468180       -39.9512
  24   2.0000      -1.422622       -38.7115
  25   2.0000      -1.397017       -38.0148
  26   2.0000      -1.396388       -37.9977
  27   2.0000      -1.387587       -37.7582
  28   2.0000      -1.381782       -37.6002
  29   2.0000      -1.367915       -37.2229
  30   2.0000      -1.362047       -37.0632
  31   2.0000      -1.362034       -37.0628
  32   2.0000      -1.356041       -36.8997
  33   2.0000      -1.351332       -36.7716
  34   2.0000      -1.077139       -29.3104
  35   2.0000      -1.076354       -29.2891
  36   2.0000      -1.072029       -29.1714
  37   2.0000      -1.042419       -28.3657
  38   2.0000      -0.959487       -26.1090
  39   2.0000      -0.938078       -25.5264
  40   2.0000      -0.896028       -24.3822
  41   2.0000      -0.876206       -23.8428
  42   2.0000      -0.856244       -23.2996
  43   2.0000      -0.853527       -23.2257
  44   2.0000      -0.825706       -22.4686
  45   2.0000      -0.790795       -21.5186
  46   2.0000      -0.754760       -20.5381
  47   2.0000      -0.754729       -20.5372
  48   2.0000      -0.736446       -20.0397
  49   2.0000      -0.733895       -19.9703
  50   2.0000      -0.721974       -19.6459
  51   2.0000      -0.709723       -19.3125
  52   2.0000      -0.708958       -19.2917
  53   2.0000      -0.692409       -18.8414
  54   2.0000      -0.679492       -18.4899
  55   2.0000      -0.669082       -18.2066
  56   2.0000      -0.668604       -18.1937
  57   2.0000      -0.660986       -17.9863
  58   2.0000      -0.657618       -17.8947
  59   2.0000      -0.633648       -17.2424
  60   2.0000      -0.633598       -17.2411
  61   2.0000      -0.626965       -17.0606
  62   2.0000      -0.624204       -16.9854
  63   2.0000      -0.622603       -16.9419
  64   2.0000      -0.601782       -16.3753
  65   2.0000      -0.597179       -16.2501
  66   2.0000      -0.590166       -16.0592
  67   2.0000      -0.582745       -15.8573
  68   2.0000      -0.578703       -15.7473
  69   2.0000      -0.573591       -15.6082
  70   2.0000      -0.557150       -15.1608
  71   2.0000      -0.557016       -15.1572
  72   2.0000      -0.546732       -14.8773
  73   2.0000      -0.545871       -14.8539
  74   2.0000      -0.541819       -14.7436
  75   2.0000      -0.536788       -14.6067
  76   2.0000      -0.515574       -14.0295
  77   2.0000      -0.514051       -13.9881
  78   2.0000      -0.507966       -13.8225
  79   2.0000      -0.496725       -13.5166
  80   2.0000      -0.496167       -13.5014
  81   2.0000      -0.488989       -13.3061
  82   2.0000      -0.484055       -13.1718
  83   2.0000      -0.464996       -12.6532
  84   2.0000      -0.462122       -12.5750
  85   2.0000      -0.455809       -12.4032
  86   2.0000      -0.453978       -12.3534
  87   2.0000      -0.440420       -11.9844
  88   2.0000      -0.438281       -11.9262
  89   2.0000      -0.433864       -11.8060
  90   2.0000      -0.431122       -11.7314
  91   0.0000       0.140863         3.8331
  92   0.0000       0.167389         4.5549
  93   0.0000       0.170409         4.6371
  94   0.0000       0.186038         5.0624
  95   0.0000       0.187386         5.0990

MULLIKEN ATOMIC CHARGES
-----------------------
   0 C :    0.204422
   1 C :    0.176952
   2 C :    0.082633
   3 O :   -0.537079
   4 C :    0.194204
   5 C :    0.451972
   6 O :   -0.581772
   7 C :    0.451986
   8 O :   -0.537082
   9 C :    0.194200
  10 C :    0.082669
  11 C :    0.204403
  12 C :    0.176932
  13 H :    0.028025
  14 O :   -0.388479
  15 H :    0.012391
  16 O :   -0.399832
  17 H :    0.041369
  18 C :    0.301102
  19 O :   -0.396892
  20 H :    0.051926
  21 H :    0.059974
  22 H :    0.059976
  23 H :    0.051923
  24 O :   -0.396840
  25 H :    0.041356
  26 C :    0.301101
  27 O :   -0.388526
  28 H :    0.028032
  29 O :   -0.399875
  30 H :    0.012403
  31 H :    0.022195
  32 H :    0.060845
  33 O :   -0.398917
  34 H :    0.022191
  35 H :    0.060848
  36 O :   -0.398952
  37 H :    0.172286
  38 H :    0.182313
  39 H :    0.183478
  40 H :    0.186061
  41 H :    0.182355
  42 H :    0.183437
  43 H :    0.186027
  44 H :    0.172258
Sum of atomic charges:    0.0000000

LOEWDIN ATOMIC CHARGES
----------------------
   0 C :    0.001801
   1 C :   -0.011472
   2 C :    0.010160
   3 O :   -0.070058
   4 C :   -0.007187
   5 C :    0.024602
   6 O :   -0.097490
   7 C :    0.024604
   8 O :   -0.070059
   9 C :   -0.007185
  10 C :    0.010165
  11 C :    0.001824
  12 C :   -0.011489
  13 H :    0.013505
  14 O :   -0.063045
  15 H :    0.006468
  16 O :   -0.070188
  17 H :    0.014325
  18 C :    0.028264
  19 O :   -0.059525
  20 H :    0.031202
  21 H :    0.021828
  22 H :    0.021828
  23 H :    0.031200
  24 O :   -0.059482
  25 H :    0.014317
  26 C :    0.028264
  27 O :   -0.063111
  28 H :    0.013507
  29 O :   -0.070222
  30 H :    0.006475
  31 H :    0.010725
  32 H :    0.032063
  33 O :   -0.073419
  34 H :    0.010723
  35 H :    0.032063
  36 O :   -0.073448
  37 H :    0.046904
  38 H :    0.046336
  39 H :    0.056792
  40 H :    0.058738
  41 H :    0.046385
  42 H :    0.056746
  43 H :    0.058701
  44 H :    0.046868

  Mayer bond orders larger than 0.1
B(  0-C ,  1-C ) :   1.0225 B(  0-C ,  2-C ) :   0.9955 B(  0-C , 13-H ) :   0.9420
B(  0-C , 14-O ) :   0.9868 B(  1-C ,  4-C ) :   0.9989 B(  1-C , 15-H ) :   0.9439
B(  1-C , 16-O ) :   0.9886 B(  2-C ,  3-O ) :   0.8719 B(  2-C , 17-H ) :   0.9413
B(  2-C , 18-C ) :   1.0552 B(  3-O ,  5-C ) :   0.9802 B(  4-C ,  5-C ) :   1.0269
B(  4-C , 19-O ) :   0.9710 B(  4-C , 20-H ) :   0.9475 B(  5-C ,  6-O ) :   0.8919
B(  5-C , 21-H ) :   0.9670 B(  6-O ,  7-C ) :   0.8919 B(  7-C ,  8-O ) :   0.9802
B(  7-C ,  9-C ) :   1.0269 B(  7-C , 22-H ) :   0.9670 B(  8-O , 10-C ) :   0.8719
B(  9-C , 12-C ) :   0.9989 B(  9-C , 23-H ) :   0.9475 B(  9-C , 24-O ) :   0.9710
B( 10-C , 11-C ) :   0.9955 B( 10-C , 25-H ) :   0.9413 B( 10-C , 26-C ) :   1.0552
B( 11-C , 12-C ) :   1.0224 B( 11-C , 27-O ) :   0.9867 B( 11-C , 28-H ) :   0.9420
B( 12-C , 29-O ) :   0.9886 B( 12-C , 30-H ) :   0.9439 B( 14-O , 43-H ) :   0.9856
B( 16-O , 42-H ) :   0.9853 B( 18-C , 31-H ) :   0.9623 B( 18-C , 32-H ) :   0.9623
B( 18-C , 33-O ) :   0.9926 B( 19-O , 41-H ) :   0.9871 B( 24-O , 38-H ) :   0.9871
B( 26-C , 34-H ) :   0.9623 B( 26-C , 35-H ) :   0.9623 B( 26-C , 36-O ) :   0.9926
B( 27-O , 40-H ) :   0.9856 B( 29-O , 39-H ) :   0.9853 B( 33-O , 44-H ) :   0.9952
B( 36-O , 37-H ) :   0.9952

E(0)                                       ...  -1290.774157119
E(0)                                       ...  -1290.774157119
E(CORR)(strong-pairs)                      ...     -3.828846957
E(CORR)(weak-pairs)                        ...     -0.005625840
E(CORR)(corrected)                         ...     -3.834472797
E(TOT)                                     ...  -1294.608629916
E(CCSD(T))                                 ...  -1294.716176735
FINAL SINGLE POINT ENERGY     -1294.716176734503

DIPOLE MOMENT
-------------
                                X             Y             Z
Electronic contribution:      0.00014      -0.00009      -1.25153
Nuclear contribution   :     -0.00018      -0.00010       0.59525
                        -----------------------------------------
Total Dipole Moment    :     -0.00004      -0.00020      -0.65628
                        -----------------------------------------
Magnitude (a.u.)       :      0.65628
Magnitude (Debye)      :      1.66813

Rotational constants in cm-1:     0.012267     0.005060     0.005022
Rotational constants in MHz :   367.760799   151.683431   150.562271

                             ****ORCA TERMINATED NORMALLY****
TOTAL RUN TIME: 0 days 0 hours 23 minutes 46 seconds 281 msec
