                         Program Version 4.1.x  -  STABLE  -
|  1> ! RHF DLPNO-CCSD(T) cc-pVDZ RIJK cc-pVTZ/JK cc-pVDZ/C
|  2> ! KDIIS SOSCF TightSCF TightPNO
|  3>
|  4> %pal nprocs 4 end
|  5>
|  6> %maxcore 8000
|  7>
|  8> %scf maxiter 300
|  9>      shift shift 0.2 erroff 0.1 end
| 10> end
| 11>
| 12> * xyzfile 0 1 acetaldehyde_dimethylacetal_g_ecl.xyz
| 13>
| 14>
| 15>                          ****END OF INPUT****

CARTESIAN COORDINATES (ANGSTROEM)
---------------------------------
  C     -2.009070   -0.847510    0.094640
  O     -1.326910    0.372330   -0.180850
  C      0.003010    0.404800    0.244240
  C      0.528260    1.811500    0.007000
  O      0.735550   -0.570550   -0.496410
  C      1.913660   -1.039890    0.136870
  H     -3.043360   -0.700700   -0.222060
  H     -1.568660   -1.683400   -0.458280
  H     -1.990350   -1.072790    1.171670
  H      0.062000    0.130160    1.316710
  H      2.312640   -1.838200   -0.492570
  H      2.676470   -0.253880    0.232260
  H      1.699060   -1.445850    1.137440
  H     -0.045500    2.533760    0.594710
  H      0.432350    2.057820   -1.053970
  H      1.580980    1.885430    0.295640

 Total Charge           Charge          ....    0
 Multiplicity           Mult            ....    1
 Number of Electrons    NEL             ....   50
 Basis Dimension        Dim             ....  134

ORBITAL ENERGIES
----------------

  NO   OCC          E(Eh)            E(eV)
   0   2.0000     -20.554214      -559.3086
   1   2.0000     -20.554113      -559.3058
   2   2.0000     -11.332660      -308.3773
   3   2.0000     -11.281902      -306.9962
   4   2.0000     -11.272452      -306.7390
   5   2.0000     -11.220472      -305.3246
   6   2.0000      -1.408449       -38.3258
   7   2.0000      -1.338307       -36.4172
   8   2.0000      -1.021699       -27.8018
   9   2.0000      -0.930478       -25.3196
  10   2.0000      -0.914225       -24.8773
  11   2.0000      -0.812151       -22.0997
  12   2.0000      -0.686942       -18.6927
  13   2.0000      -0.677139       -18.4259
  14   2.0000      -0.652843       -17.7648
  15   2.0000      -0.611862       -16.6496
  16   2.0000      -0.590033       -16.0556
  17   2.0000      -0.580112       -15.7856
  18   2.0000      -0.548007       -14.9120
  19   2.0000      -0.531679       -14.4677
  20   2.0000      -0.518167       -14.1000
  21   2.0000      -0.484052       -13.1717
  22   2.0000      -0.475257       -12.9324
  23   2.0000      -0.433651       -11.8002
  24   2.0000      -0.418280       -11.3820
  25   0.0000       0.180035         4.8990
  26   0.0000       0.205875         5.6021
  27   0.0000       0.222100         6.0436
  28   0.0000       0.236360         6.4317
  29   0.0000       0.253539         6.8991

MULLIKEN ATOMIC CHARGES
-----------------------
   0 C :    0.173923
   1 O :   -0.485763
   2 C :    0.355360
   3 C :    0.005352
   4 O :   -0.501358
   5 C :    0.169232
   6 H :    0.042518
   7 H :    0.039515
   8 H :    0.010131
   9 H :   -0.006499
  10 H :    0.046176
  11 H :    0.019945
  12 H :    0.017656
  13 H :    0.037941
  14 H :    0.051786
  15 H :    0.024085
Sum of atomic charges:   -0.0000000

LOEWDIN ATOMIC CHARGES
----------------------
   0 C :    0.021104
   1 O :   -0.062990
   2 C :    0.015810
   3 C :   -0.049435
   4 O :   -0.088069
   5 C :    0.012512
   6 H :    0.022167
   7 H :    0.013461
   8 H :    0.005528
   9 H :   -0.008830
  10 H :    0.024352
  11 H :    0.006510
  12 H :    0.006604
  13 H :    0.028191
  14 H :    0.031546
  15 H :    0.021539

  Mayer bond orders larger than 0.1
B(  0-C ,  1-O ) :   0.9527 B(  0-C ,  6-H ) :   0.9949 B(  0-C ,  7-H ) :   0.9838
B(  0-C ,  8-H ) :   0.9805 B(  1-O ,  2-C ) :   1.0167 B(  2-C ,  3-C ) :   1.0625
B(  2-C ,  4-O ) :   0.9243 B(  2-C ,  9-H ) :   0.9584 B(  3-C , 13-H ) :   0.9744
B(  3-C , 14-H ) :   0.9726 B(  3-C , 15-H ) :   0.9725 B(  4-O ,  5-C ) :   0.9737
B(  5-C , 10-H ) :   0.9946 B(  5-C , 11-H ) :   0.9808 B(  5-C , 12-H ) :   0.9802

E(0)                                       ...   -307.012635616
E(0)                                       ...   -307.012635616
E(CORR)(strong-pairs)                      ...     -1.009474951
E(CORR)(weak-pairs)                        ...     -0.000344069
E(CORR)(corrected)                         ...     -1.009819020
E(TOT)                                     ...   -308.022454636
E(CCSD(T))                                 ...   -308.049131270
FINAL SINGLE POINT ENERGY      -308.049131270362

DIPOLE MOMENT
-------------
                                X             Y             Z
Electronic contribution:     -1.79863       0.11610      -1.91178
Nuclear contribution   :      2.19471      -0.40717       2.61624
                        -----------------------------------------
Total Dipole Moment    :      0.39608      -0.29107       0.70446
                        -----------------------------------------
Magnitude (a.u.)       :      0.85899
Magnitude (Debye)      :      2.18338

Rotational constants in cm-1:     0.157976     0.094293     0.064463
Rotational constants in MHz :  4735.996399  2826.827697  1932.557912

                             ****ORCA TERMINATED NORMALLY****
TOTAL RUN TIME: 0 days 0 hours 1 minutes 23 seconds 237 msec
