                         Program Version 4.1.x  -  STABLE  -
|  1> ! RHF DLPNO-CCSD(T) cc-pVDZ RIJK cc-pVTZ/JK cc-pVDZ/C
|  2> ! KDIIS SOSCF TightSCF TightPNO
|  3>
|  4> %pal nprocs 4 end
|  5>
|  6> %maxcore 8000
|  7>
|  8> %scf maxiter 300
|  9>      shift shift 0.2 erroff 0.1 end
| 10> end
| 11>
| 12> * xyzfile 0 1 acetone_ecl.xyz
| 13>
| 14>
| 15>                          ****END OF INPUT****

CARTESIAN COORDINATES (ANGSTROEM)
---------------------------------
  C     -1.291130   -0.616520    0.000050
  C      0.001080    0.177990   -0.000380
  O     -0.011480    1.388390    0.000090
  C      1.301280   -0.602770    0.000050
  H     -1.889830   -0.367400    0.905460
  H     -1.889670   -0.368480   -0.905750
  H     -1.095720   -1.712770    0.000690
  H      2.180520    0.081210   -0.000540
  H      1.359670   -1.245270    0.907750
  H      1.359490   -1.246560   -0.906730

 Total Charge           Charge          ....    0
 Multiplicity           Mult            ....    1
 Number of Electrons    NEL             ....   32
 Basis Dimension        Dim             ....   86

ORBITAL ENERGIES
----------------

  NO   OCC          E(Eh)            E(eV)
   0   2.0000     -20.543635      -559.0207
   1   2.0000     -11.334917      -308.4388
   2   2.0000     -11.247335      -306.0556
   3   2.0000     -11.247269      -306.0537
   4   2.0000      -1.385492       -37.7011
   5   2.0000      -1.033902       -28.1339
   6   2.0000      -0.959527       -26.1100
   7   2.0000      -0.736344       -20.0369
   8   2.0000      -0.636968       -17.3328
   9   2.0000      -0.630682       -17.1617
  10   2.0000      -0.615835       -16.7577
  11   2.0000      -0.559191       -15.2164
  12   2.0000      -0.553265       -15.0551
  13   2.0000      -0.525739       -14.3061
  14   2.0000      -0.478996       -13.0341
  15   2.0000      -0.407577       -11.0907
  16   0.0000       0.154483         4.2037
  17   0.0000       0.169789         4.6202
  18   0.0000       0.223378         6.0784
  19   0.0000       0.246356         6.7037
  20   0.0000       0.247790         6.7427

MULLIKEN ATOMIC CHARGES
-----------------------
   0 C :   -0.070857
   1 C :    0.095509
   2 O :   -0.332840
   3 C :   -0.067554
   4 H :    0.076430
   5 H :    0.076395
   6 H :    0.036204
   7 H :    0.066596
   8 H :    0.060105
   9 H :    0.060013
Sum of atomic charges:    0.0000000

LOEWDIN ATOMIC CHARGES
----------------------
   0 C :   -0.070379
   1 C :   -0.005192
   2 O :   -0.093280
   3 C :   -0.070910
   4 H :    0.047408
   5 H :    0.047394
   6 H :    0.027065
   7 H :    0.039506
   8 H :    0.039221
   9 H :    0.039168

  Mayer bond orders larger than 0.1
B(  0-C ,  1-C ) :   1.0015 B(  0-C ,  4-H ) :   0.9679 B(  0-C ,  5-H ) :   0.9679
B(  0-C ,  6-H ) :   0.9788 B(  1-C ,  2-O ) :   2.1018 B(  1-C ,  3-C ) :   1.0192
B(  3-C ,  7-H ) :   0.9762 B(  3-C ,  8-H ) :   0.9654 B(  3-C ,  9-H ) :   0.9654

E(0)                                       ...   -191.973564781
E(0)                                       ...   -191.973564781
E(CORR)(strong-pairs)                      ...     -0.642033820
E(CORR)(weak-pairs)                        ...     -0.000133224
E(CORR)(corrected)                         ...     -0.642167043
E(TOT)                                     ...   -192.615731825
E(CCSD(T))                                 ...   -192.634606078
FINAL SINGLE POINT ENERGY      -192.634606078469

DIPOLE MOMENT
-------------
                                X             Y             Z
Electronic contribution:     -0.04430       3.78964      -0.00108
Nuclear contribution   :      0.02512      -5.00550       0.00093
                        -----------------------------------------
Total Dipole Moment    :     -0.01918      -1.21585      -0.00015
                        -----------------------------------------
Magnitude (a.u.)       :      1.21600
Magnitude (Debye)      :      3.09083

Rotational constants in cm-1:     0.341037     0.278156     0.163017
Rotational constants in MHz : 10224.043626  8338.900759  4887.137124

                             ****ORCA TERMINATED NORMALLY****
TOTAL RUN TIME: 0 days 0 hours 1 minutes 18 seconds 463 msec
