                         Program Version 4.1.x  -  STABLE  -
|  1> ! RHF DLPNO-CCSD(T) cc-pVDZ RIJK cc-pVTZ/JK cc-pVDZ/C
|  2> ! KDIIS SOSCF TightSCF TightPNO
|  3>
|  4> %pal nprocs 4 end
|  5>
|  6> %maxcore 8000
|  7>
|  8> %scf maxiter 300
|  9>      shift shift 0.2 erroff 0.1 end
| 10> end
| 11>
| 12> * xyzfile 0 1 acetaldehyde_dimethylacetal_g_g_.xyz
| 13>
| 14>
| 15>                          ****END OF INPUT****

CARTESIAN COORDINATES (ANGSTROEM)
---------------------------------
  C     -1.381160   -1.311930   -0.384770
  O     -0.704700   -0.690930    0.706830
  C     -0.047210    0.534640    0.420800
  C     -0.958090    1.615760   -0.144300
  O      1.018340    0.368320   -0.491870
  C      2.090400   -0.430690   -0.000570
  H     -1.642540   -2.317140   -0.047380
  H     -2.302910   -0.777460   -0.648210
  H     -0.738150   -1.382080   -1.269780
  H      0.349750    0.833670    1.401780
  H      2.856890   -0.436370   -0.778070
  H      2.511920    0.000490    0.919240
  H      1.767220   -1.457560    0.205330
  H     -1.842910    1.728990    0.488540
  H     -1.272130    1.374730   -1.163500
  H     -0.419880    2.566900   -0.174540

 Total Charge           Charge          ....    0
 Multiplicity           Mult            ....    1
 Number of Electrons    NEL             ....   50
 Basis Dimension        Dim             ....  134

ORBITAL ENERGIES
----------------

  NO   OCC          E(Eh)            E(eV)
   0   2.0000     -20.555863      -559.3535
   1   2.0000     -20.553346      -559.2850
   2   2.0000     -11.330636      -308.3223
   3   2.0000     -11.274947      -306.8069
   4   2.0000     -11.273362      -306.7638
   5   2.0000     -11.223001      -305.3934
   6   2.0000      -1.405174       -38.2367
   7   2.0000      -1.334949       -36.3258
   8   2.0000      -1.021471       -27.7956
   9   2.0000      -0.934658       -25.4333
  10   2.0000      -0.917038       -24.9539
  11   2.0000      -0.798416       -21.7260
  12   2.0000      -0.690606       -18.7923
  13   2.0000      -0.674637       -18.3578
  14   2.0000      -0.650678       -17.7059
  15   2.0000      -0.607685       -16.5359
  16   2.0000      -0.592239       -16.1156
  17   2.0000      -0.576466       -15.6864
  18   2.0000      -0.548724       -14.9315
  19   2.0000      -0.527350       -14.3499
  20   2.0000      -0.514911       -14.0115
  21   2.0000      -0.509203       -13.8561
  22   2.0000      -0.449401       -12.2288
  23   2.0000      -0.434442       -11.8218
  24   2.0000      -0.427970       -11.6457
  25   0.0000       0.185259         5.0411
  26   0.0000       0.206014         5.6059
  27   0.0000       0.220503         6.0002
  28   0.0000       0.244761         6.6603
  29   0.0000       0.260464         7.0876

MULLIKEN ATOMIC CHARGES
-----------------------
   0 C :    0.164395
   1 O :   -0.509172
   2 C :    0.355195
   3 C :   -0.017780
   4 O :   -0.499305
   5 C :    0.171930
   6 H :    0.041672
   7 H :    0.024513
   8 H :    0.033074
   9 H :    0.018407
  10 H :    0.041354
  11 H :    0.018115
  12 H :    0.031870
  13 H :    0.039419
  14 H :    0.042452
  15 H :    0.043859
Sum of atomic charges:    0.0000000

LOEWDIN ATOMIC CHARGES
----------------------
   0 C :    0.016732
   1 O :   -0.088938
   2 C :    0.013845
   3 C :   -0.052864
   4 O :   -0.083411
   5 C :    0.019296
   6 H :    0.021853
   7 H :    0.008018
   8 H :    0.010919
   9 H :    0.009161
  10 H :    0.021413
  11 H :    0.008613
  12 H :    0.011168
  13 H :    0.027300
  14 H :    0.025945
  15 H :    0.030951

  Mayer bond orders larger than 0.1
B(  0-C ,  1-O ) :   0.9518 B(  0-C ,  6-H ) :   0.9956 B(  0-C ,  7-H ) :   0.9845
B(  0-C ,  8-H ) :   0.9816 B(  1-O ,  2-C ) :   0.9725 B(  2-C ,  3-C ) :   1.0662
B(  2-C ,  4-O ) :   0.9683 B(  2-C ,  9-H ) :   0.9678 B(  3-C , 13-H ) :   0.9742
B(  3-C , 14-H ) :   0.9715 B(  3-C , 15-H ) :   0.9760 B(  4-O ,  5-C ) :   0.9565
B(  5-C , 10-H ) :   0.9941 B(  5-C , 11-H ) :   0.9836 B(  5-C , 12-H ) :   0.9834

E(0)                                       ...   -307.014110657
E(0)                                       ...   -307.014110657
E(CORR)(strong-pairs)                      ...     -1.010193923
E(CORR)(weak-pairs)                        ...     -0.000347477
E(CORR)(corrected)                         ...     -1.010541400
E(TOT)                                     ...   -308.024652057
E(CCSD(T))                                 ...   -308.051409861
FINAL SINGLE POINT ENERGY      -308.051409860783

DIPOLE MOMENT
-------------
                                X             Y             Z
Electronic contribution:      0.77089      -0.16928       1.03352
Nuclear contribution   :     -0.75834       0.13451      -1.10783
                        -----------------------------------------
Total Dipole Moment    :      0.01255      -0.03477      -0.07430
                        -----------------------------------------
Magnitude (a.u.)       :      0.08299
Magnitude (Debye)      :      0.21095

Rotational constants in cm-1:     0.149298     0.101579     0.072369
Rotational constants in MHz :  4475.830646  3045.254611  2169.575654

                             ****ORCA TERMINATED NORMALLY****
TOTAL RUN TIME: 0 days 0 hours 1 minutes 24 seconds 693 msec
