                         Program Version 4.1.x  -  STABLE  -
|  1> ! RHF DLPNO-CCSD(T) cc-pVDZ RIJK cc-pVTZ/JK cc-pVDZ/C
|  2> ! KDIIS SOSCF TightSCF TightPNO
|  3>
|  4> %pal nprocs 4 end
|  5>
|  6> %maxcore 8000
|  7>
|  8> %scf maxiter 300
|  9>      shift shift 0.2 erroff 0.1 end
| 10> end
| 11>
| 12> * xyzfile 0 1 acetone.xyz
| 13>
| 14>
| 15>                          ****END OF INPUT****

CARTESIAN COORDINATES (ANGSTROEM)
---------------------------------
  C      1.290560   -0.612950    0.000180
  C     -0.000340    0.183860   -0.000540
  O      0.001020    1.394280    0.000030
  C     -1.291310   -0.612010   -0.000110
  H      1.288800   -1.345460   -0.838570
  H      2.175890    0.052370   -0.121560
  H      1.396910   -1.163380    0.962660
  H     -1.387210   -1.183860   -0.950960
  H     -1.300170   -1.325900    0.854460
  H     -2.175850    0.058580    0.096500

 Total Charge           Charge          ....    0
 Multiplicity           Mult            ....    1
 Number of Electrons    NEL             ....   32
 Basis Dimension        Dim             ....   86

ORBITAL ENERGIES
----------------

  NO   OCC          E(Eh)            E(eV)
   0   2.0000     -20.545848      -559.0810
   1   2.0000     -11.334832      -308.4365
   2   2.0000     -11.247519      -306.0606
   3   2.0000     -11.247425      -306.0580
   4   2.0000      -1.386351       -37.7245
   5   2.0000      -1.035115       -28.1669
   6   2.0000      -0.958872       -26.0922
   7   2.0000      -0.736899       -20.0521
   8   2.0000      -0.638024       -17.3615
   9   2.0000      -0.630499       -17.1567
  10   2.0000      -0.618707       -16.8359
  11   2.0000      -0.556057       -15.1311
  12   2.0000      -0.549719       -14.9586
  13   2.0000      -0.527267       -14.3477
  14   2.0000      -0.483217       -13.1490
  15   2.0000      -0.408557       -11.1174
  16   0.0000       0.156788         4.2664
  17   0.0000       0.166634         4.5343
  18   0.0000       0.227789         6.1985
  19   0.0000       0.237733         6.4690
  20   0.0000       0.247895         6.7456

MULLIKEN ATOMIC CHARGES
-----------------------
   0 C :   -0.072767
   1 C :    0.103908
   2 O :   -0.327404
   3 C :   -0.072709
   4 H :    0.053982
   5 H :    0.067895
   6 H :    0.062417
   7 H :    0.061836
   8 H :    0.054963
   9 H :    0.067880
Sum of atomic charges:    0.0000000

LOEWDIN ATOMIC CHARGES
----------------------
   0 C :   -0.070302
   1 C :   -0.006760
   2 O :   -0.088561
   3 C :   -0.070219
   4 H :    0.036742
   5 H :    0.040436
   6 H :    0.040639
   7 H :    0.040264
   8 H :    0.037316
   9 H :    0.040446

  Mayer bond orders larger than 0.1
B(  0-C ,  1-C ) :   1.0128 B(  0-C ,  4-H ) :   0.9695 B(  0-C ,  5-H ) :   0.9765
B(  0-C ,  6-H ) :   0.9658 B(  1-C ,  2-O ) :   2.1060 B(  1-C ,  3-C ) :   1.0130
B(  3-C ,  7-H ) :   0.9660 B(  3-C ,  8-H ) :   0.9691 B(  3-C ,  9-H ) :   0.9765

E(0)                                       ...   -191.974821656
E(0)                                       ...   -191.974821656
E(CORR)(strong-pairs)                      ...     -0.642125080
E(CORR)(weak-pairs)                        ...     -0.000134237
E(CORR)(corrected)                         ...     -0.642259317
E(TOT)                                     ...   -192.617080973
E(CCSD(T))                                 ...   -192.635952073
FINAL SINGLE POINT ENERGY      -192.635952072840

DIPOLE MOMENT
-------------
                                X             Y             Z
Electronic contribution:      0.00026       3.82532      -0.00144
Nuclear contribution   :     -0.00167      -5.05545       0.00263
                        -----------------------------------------
Total Dipole Moment    :     -0.00141      -1.23013       0.00119
                        -----------------------------------------
Magnitude (a.u.)       :      1.23013
Magnitude (Debye)      :      3.12674

Rotational constants in cm-1:     0.338448     0.280133     0.163102
Rotational constants in MHz : 10146.421389  8398.176017  4889.675223

                             ****ORCA TERMINATED NORMALLY****
TOTAL RUN TIME: 0 days 0 hours 1 minutes 18 seconds 252 msec
