                         Program Version 4.1.x  -  STABLE  -
|  1> ! RHF DLPNO-CCSD(T) cc-pVDZ RIJK cc-pVTZ/JK cc-pVDZ/C
|  2> ! KDIIS SOSCF TightSCF TightPNO
|  3>
|  4> %pal nprocs 4 end
|  5>
|  6> %maxcore 8000
|  7>
|  8> %scf maxiter 300
|  9>      shift shift 0.2 erroff 0.1 end
| 10> end
| 11>
| 12> * xyzfile 0 1 acrolein_cis.xyz
| 13>
| 14>
| 15>                          ****END OF INPUT****

CARTESIAN COORDINATES (ANGSTROEM)
---------------------------------
  C      1.478450   -0.466780    0.000000
  C      0.665730    0.598990    0.000080
  C     -0.812980    0.464130   -0.000720
  O     -1.412020   -0.597260    0.000300
  H     -1.376700    1.420260    0.001030
  H      1.061690    1.612530    0.000620
  H      2.558790   -0.361060    0.000340
  H      1.065190   -1.471700   -0.000550

 Total Charge           Charge          ....    0
 Multiplicity           Mult            ....    1
 Number of Electrons    NEL             ....   30
 Basis Dimension        Dim             ....   76

ORBITAL ENERGIES
----------------

  NO   OCC          E(Eh)            E(eV)
   0   2.0000     -20.557062      -559.3861
   1   2.0000     -11.340399      -308.5880
   2   2.0000     -11.270638      -306.6896
   3   2.0000     -11.254255      -306.2439
   4   2.0000      -1.385262       -37.6949
   5   2.0000      -1.073235       -29.2042
   6   2.0000      -0.895358       -24.3639
   7   2.0000      -0.752949       -20.4888
   8   2.0000      -0.697348       -18.9758
   9   2.0000      -0.637622       -17.3506
  10   2.0000      -0.602069       -16.3831
  11   2.0000      -0.544556       -14.8181
  12   2.0000      -0.533802       -14.5255
  13   2.0000      -0.424945       -11.5633
  14   2.0000      -0.389007       -10.5854
  15   0.0000       0.081267         2.2114
  16   0.0000       0.188346         5.1252
  17   0.0000       0.212820         5.7911
  18   0.0000       0.243932         6.6377
  19   0.0000       0.246727         6.7138

MULLIKEN ATOMIC CHARGES
-----------------------
   0 C :    0.059894
   1 C :   -0.251523
   2 C :    0.313030
   3 O :   -0.333377
   4 H :    0.024749
   5 H :    0.037994
   6 H :    0.068054
   7 H :    0.081179
Sum of atomic charges:   -0.0000000

LOEWDIN ATOMIC CHARGES
----------------------
   0 C :    0.051128
   1 C :   -0.103845
   2 C :    0.041228
   3 O :   -0.093224
   4 H :    0.004407
   5 H :    0.027755
   6 H :    0.033362
   7 H :    0.039189

  Mayer bond orders larger than 0.1
B(  0-C ,  1-C ) :   1.9399 B(  0-C ,  6-H ) :   0.9714 B(  0-C ,  7-H ) :   0.9589
B(  1-C ,  2-C ) :   1.0315 B(  1-C ,  5-H ) :   0.9729 B(  2-C ,  3-O ) :   2.0864
B(  2-C ,  4-H ) :   0.9621

E(0)                                       ...   -190.774866693
E(0)                                       ...   -190.774866693
E(CORR)(strong-pairs)                      ...     -0.608014463
E(CORR)(weak-pairs)                        ...     -0.000096881
E(CORR)(corrected)                         ...     -0.608111344
E(TOT)                                     ...   -191.382978037
E(CCSD(T))                                 ...   -191.403530945
FINAL SINGLE POINT ENERGY      -191.403530945354

DIPOLE MOMENT
-------------
                                X             Y             Z
Electronic contribution:     -2.37487      -0.46778      -0.00195
Nuclear contribution   :      3.30302       1.19652       0.00145
                        -----------------------------------------
Total Dipole Moment    :      0.92815       0.72874      -0.00050
                        -----------------------------------------
Magnitude (a.u.)       :      1.18005
Magnitude (Debye)      :      2.99946

Rotational constants in cm-1:     0.764550     0.205255     0.161814
Rotational constants in MHz : 22920.640551  6153.403575  4851.061504

                             ****ORCA TERMINATED NORMALLY****
TOTAL RUN TIME: 0 days 0 hours 1 minutes 4 seconds 71 msec
