                         Program Version 4.1.x  -  STABLE  -
|  1> ! RHF DLPNO-CCSD(T) cc-pVDZ RIJK cc-pVTZ/JK cc-pVDZ/C
|  2> ! KDIIS SOSCF TightSCF TightPNO
|  3>
|  4> %pal nprocs 4 end
|  5>
|  6> %maxcore 8000
|  7>
|  8> %scf maxiter 300
|  9>      shift shift 0.2 erroff 0.1 end
| 10> end
| 11>
| 12> * xyzfile 0 1 acrolein_t.xyz
| 13>
| 14>
| 15>                          ****END OF INPUT****

CARTESIAN COORDINATES (ANGSTROEM)
---------------------------------
  C      1.766610    0.140580    0.000050
  C      0.562270   -0.448020   -0.000070
  C     -0.676110    0.352350   -0.000190
  O     -1.797840   -0.123460    0.000130
  H     -0.527390    1.454190    0.000010
  H      0.442800   -1.528800   -0.000100
  H      2.688850   -0.431790    0.000190
  H      1.861810    1.224600    0.000170

 Total Charge           Charge          ....    0
 Multiplicity           Mult            ....    1
 Number of Electrons    NEL             ....   30
 Basis Dimension        Dim             ....   76

ORBITAL ENERGIES
----------------

  NO   OCC          E(Eh)            E(eV)
   0   2.0000     -20.558711      -559.4310
   1   2.0000     -11.340633      -308.5943
   2   2.0000     -11.277299      -306.8709
   3   2.0000     -11.260069      -306.4021
   4   2.0000      -1.386660       -37.7329
   5   2.0000      -1.085699       -29.5434
   6   2.0000      -0.884802       -24.0767
   7   2.0000      -0.783460       -21.3190
   8   2.0000      -0.667600       -18.1663
   9   2.0000      -0.662353       -18.0235
  10   2.0000      -0.600137       -16.3306
  11   2.0000      -0.555012       -15.1026
  12   2.0000      -0.535552       -14.5731
  13   2.0000      -0.426583       -11.6079
  14   2.0000      -0.395867       -10.7721
  15   0.0000       0.086149         2.3442
  16   0.0000       0.189157         5.1472
  17   0.0000       0.199415         5.4264
  18   0.0000       0.229805         6.2533
  19   0.0000       0.247716         6.7407

MULLIKEN ATOMIC CHARGES
-----------------------
   0 C :    0.013493
   1 C :   -0.184033
   2 C :    0.298552
   3 O :   -0.332711
   4 H :    0.016622
   5 H :    0.053500
   6 H :    0.073110
   7 H :    0.061467
Sum of atomic charges:   -0.0000000

LOEWDIN ATOMIC CHARGES
----------------------
   0 C :    0.016605
   1 C :   -0.069166
   2 C :    0.034354
   3 O :   -0.086573
   4 H :    0.003231
   5 H :    0.036217
   6 H :    0.035203
   7 H :    0.030129

  Mayer bond orders larger than 0.1
B(  0-C ,  1-C ) :   1.9206 B(  0-C ,  6-H ) :   0.9681 B(  0-C ,  7-H ) :   0.9670
B(  1-C ,  2-C ) :   1.0564 B(  1-C ,  5-H ) :   0.9734 B(  2-C ,  3-O ) :   2.0653
B(  2-C ,  4-H ) :   0.9636

E(0)                                       ...   -190.777403280
E(0)                                       ...   -190.777403280
E(CORR)(strong-pairs)                      ...     -0.607457583
E(CORR)(weak-pairs)                        ...     -0.000099040
E(CORR)(corrected)                         ...     -0.607556623
E(TOT)                                     ...   -191.384959903
E(CCSD(T))                                 ...   -191.405454927
FINAL SINGLE POINT ENERGY      -191.405454926879

DIPOLE MOMENT
-------------
                                X             Y             Z
Electronic contribution:     -3.08045      -0.37692      -0.00042
Nuclear contribution   :      4.45975       0.71981       0.00027
                        -----------------------------------------
Total Dipole Moment    :      1.37930       0.34289      -0.00015
                        -----------------------------------------
Magnitude (a.u.)       :      1.42129
Magnitude (Debye)      :      3.61262

Rotational constants in cm-1:     1.596273     0.154093     0.140528
Rotational constants in MHz : 47855.075239  4619.597316  4212.912049

                             ****ORCA TERMINATED NORMALLY****
TOTAL RUN TIME: 0 days 0 hours 1 minutes 4 seconds 231 msec
