                         Program Version 4.1.x  -  STABLE  -
|  1> ! RHF DLPNO-CCSD(T) cc-pVDZ RIJK cc-pVTZ/JK cc-pVDZ/C
|  2> ! KDIIS SOSCF TightSCF TightPNO
|  3>
|  4> %pal nprocs 4 end
|  5>
|  6> %maxcore 8000
|  7>
|  8> %scf maxiter 300
|  9>      shift shift 0.2 erroff 0.1 end
| 10> end
| 11>
| 12> * xyzfile 0 1 Adamantyl_CMe2Cl.xyz
| 13>
| 14>
| 15>                          ****END OF INPUT****

CARTESIAN COORDINATES (ANGSTROEM)
---------------------------------
  C      2.136100   -1.591500    0.000300
  C      1.717500   -0.806400   -1.248800
  C      0.193100   -0.611800   -1.253200
  C      1.717600   -0.805800    1.249100
  C      0.193200   -0.611200    1.253500
  C     -0.276400    0.168800   -0.000000
  C      2.409300    0.562900   -1.252300
  C      1.986300    1.341600   -0.000300
  C      0.460000    1.536500   -0.000300
  C      2.409400    0.563400    1.252000
  C     -1.831100    0.394200   -0.000000
  C     -2.360500    1.112700    1.245000
  C     -2.360500    1.112700   -1.245000
  Cl    -2.678700   -1.253600   -0.000000
  H      3.212300   -1.754200    0.000300
  H      1.666600   -2.573100    0.000500
  H      1.998800   -1.360800   -2.141400
  H     -0.296800   -1.577900   -1.293700
  H     -0.083700   -0.076600   -2.156100
  H      1.998900   -1.359800    2.141900
  H     -0.083600   -0.075700    2.156200
  H     -0.296800   -1.577300    1.294500
  H      2.139300    1.117400   -2.149300
  H      3.490500    0.440500   -1.269900
  H      2.459000    2.321400   -0.000500
  H      0.182500    2.118900   -0.873700
  H      0.182600    2.119200    0.872800
  H      3.490600    0.441000    1.269600
  H      2.139400    1.118300    2.148700
  H     -3.439200    1.189200    1.187200
  H     -2.115800    0.589700    2.158200
  H     -1.958300    2.118200    1.299000
  H     -3.439200    1.189300   -1.187100
  H     -1.958200    2.118200   -1.299100
  H     -2.115900    0.589700   -2.158200

 Total Charge           Charge          ....    0
 Multiplicity           Mult            ....    1
 Number of Electrons    NEL             ....  116
 Basis Dimension        Dim             ....  305

ORBITAL ENERGIES
----------------

  NO   OCC          E(Eh)            E(eV)
   0   2.0000    -104.794993     -2851.6167
   1   2.0000     -11.305033      -307.6256
   2   2.0000     -11.245461      -306.0045
   3   2.0000     -11.227763      -305.5230
   4   2.0000     -11.227746      -305.5225
   5   2.0000     -11.225118      -305.4510
   6   2.0000     -11.223840      -305.4162
   7   2.0000     -11.221417      -305.3503
   8   2.0000     -11.221405      -305.3499
   9   2.0000     -11.216385      -305.2133
  10   2.0000     -11.216352      -305.2124
  11   2.0000     -11.214914      -305.1733
  12   2.0000     -11.214898      -305.1729
  13   2.0000     -11.214041      -305.1496
  14   2.0000     -10.522291      -286.3261
  15   2.0000      -7.989566      -217.4071
  16   2.0000      -7.986672      -217.3284
  17   2.0000      -7.986631      -217.3273
  18   2.0000      -1.179126       -32.0856
  19   2.0000      -1.135685       -30.9035
  20   2.0000      -1.044478       -28.4217
  21   2.0000      -1.041388       -28.3376
  22   2.0000      -1.038299       -28.2535
  23   2.0000      -1.001541       -27.2533
  24   2.0000      -0.951090       -25.8805
  25   2.0000      -0.913426       -24.8556
  26   2.0000      -0.909468       -24.7479
  27   2.0000      -0.833487       -22.6803
  28   2.0000      -0.799569       -21.7574
  29   2.0000      -0.798295       -21.7227
  30   2.0000      -0.734835       -19.9959
  31   2.0000      -0.709532       -19.3074
  32   2.0000      -0.638484       -17.3740
  33   2.0000      -0.624371       -16.9900
  34   2.0000      -0.622211       -16.9312
  35   2.0000      -0.621285       -16.9060
  36   2.0000      -0.609239       -16.5782
  37   2.0000      -0.594752       -16.1840
  38   2.0000      -0.590747       -16.0751
  39   2.0000      -0.568960       -15.4822
  40   2.0000      -0.564686       -15.3659
  41   2.0000      -0.559020       -15.2117
  42   2.0000      -0.547828       -14.9072
  43   2.0000      -0.544882       -14.8270
  44   2.0000      -0.527933       -14.3658
  45   2.0000      -0.508949       -13.8492
  46   2.0000      -0.505428       -13.7534
  47   2.0000      -0.486189       -13.2299
  48   2.0000      -0.465584       -12.6692
  49   2.0000      -0.462418       -12.5830
  50   2.0000      -0.460472       -12.5301
  51   2.0000      -0.456230       -12.4146
  52   2.0000      -0.452654       -12.3173
  53   2.0000      -0.426824       -11.6145
  54   2.0000      -0.414835       -11.2882
  55   2.0000      -0.404838       -11.0162
  56   2.0000      -0.401788       -10.9332
  57   2.0000      -0.400343       -10.8939
  58   0.0000       0.163849         4.4586
  59   0.0000       0.189841         5.1658
  60   0.0000       0.197814         5.3828
  61   0.0000       0.207754         5.6533
  62   0.0000       0.216276         5.8852

MULLIKEN ATOMIC CHARGES
-----------------------
   0 C :    0.090777
   1 C :   -0.153943
   2 C :    0.151284
   3 C :   -0.153893
   4 C :    0.151200
   5 C :   -0.402904
   6 C :    0.089250
   7 C :   -0.150091
   8 C :    0.130002
   9 C :    0.089297
  10 C :   -0.373840
  11 C :    0.112666
  12 C :    0.112655
  13 Cl:   -0.170788
  14 H :    0.013981
  15 H :    0.019127
  16 H :   -0.001650
  17 H :    0.037453
  18 H :    0.016918
  19 H :   -0.001665
  20 H :    0.016915
  21 H :    0.037453
  22 H :    0.013317
  23 H :    0.015570
  24 H :   -0.002168
  25 H :    0.021361
  26 H :    0.021329
  27 H :    0.015575
  28 H :    0.013306
  29 H :    0.042607
  30 H :    0.044958
  31 H :    0.033186
  32 H :    0.042607
  33 H :    0.033197
  34 H :    0.044949
Sum of atomic charges:   -0.0000000

LOEWDIN ATOMIC CHARGES
----------------------
   0 C :   -0.015310
   1 C :   -0.028050
   2 C :   -0.008492
   3 C :   -0.028050
   4 C :   -0.008503
   5 C :   -0.053197
   6 C :   -0.016048
   7 C :   -0.026942
   8 C :   -0.008408
   9 C :   -0.016042
  10 C :   -0.063981
  11 C :   -0.038335
  12 C :   -0.038340
  13 Cl:   -0.013480
  14 H :    0.014261
  15 H :    0.016447
  16 H :    0.015728
  17 H :    0.015881
  18 H :    0.012952
  19 H :    0.015723
  20 H :    0.012947
  21 H :    0.015896
  22 H :    0.013723
  23 H :    0.014971
  24 H :    0.015262
  25 H :    0.013781
  26 H :    0.013759
  27 H :    0.014977
  28 H :    0.013721
  29 H :    0.026146
  30 H :    0.023466
  31 H :    0.021961
  32 H :    0.026148
  33 H :    0.021969
  34 H :    0.023458

  Mayer bond orders larger than 0.1
B(  0-C ,  1-C ) :   1.0273 B(  0-C ,  3-C ) :   1.0273 B(  0-C , 14-H ) :   0.9651
B(  0-C , 15-H ) :   0.9652 B(  1-C ,  2-C ) :   1.0386 B(  1-C ,  6-C ) :   1.0252
B(  1-C , 16-H ) :   0.9642 B(  2-C ,  5-C ) :   1.0034 B(  2-C , 17-H ) :   0.9560
B(  2-C , 18-H ) :   0.9560 B(  3-C ,  4-C ) :   1.0386 B(  3-C ,  9-C ) :   1.0252
B(  3-C , 19-H ) :   0.9642 B(  4-C ,  5-C ) :   1.0034 B(  4-C , 20-H ) :   0.9560
B(  4-C , 21-H ) :   0.9560 B(  5-C ,  8-C ) :   0.9924 B(  5-C , 10-C ) :   1.0081
B(  6-C ,  7-C ) :   1.0266 B(  6-C , 22-H ) :   0.9659 B(  6-C , 23-H ) :   0.9653
B(  7-C ,  8-C ) :   1.0400 B(  7-C ,  9-C ) :   1.0266 B(  7-C , 24-H ) :   0.9639
B(  8-C , 25-H ) :   0.9580 B(  8-C , 26-H ) :   0.9580 B(  9-C , 27-H ) :   0.9653
B(  9-C , 28-H ) :   0.9658 B( 10-C , 11-C ) :   1.0211 B( 10-C , 12-C ) :   1.0211
B( 10-C , 13-Cl) :   0.9972 B( 11-C , 29-H ) :   0.9748 B( 11-C , 30-H ) :   0.9755
B( 11-C , 31-H ) :   0.9677 B( 12-C , 32-H ) :   0.9748 B( 12-C , 33-H ) :   0.9677
B( 12-C , 34-H ) :   0.9755

E(0)                                       ...   -964.079742305
E(0)                                       ...   -964.079742305
E(CORR)(strong-pairs)                      ...     -2.114018605
E(CORR)(weak-pairs)                        ...     -0.002193734
E(CORR)(corrected)                         ...     -2.116212339
E(TOT)                                     ...   -966.195954645
E(CCSD(T))                                 ...   -966.266949056
FINAL SINGLE POINT ENERGY      -966.266949055900

DIPOLE MOMENT
-------------
                                X             Y             Z
Electronic contribution:    -10.72054      -8.31943       0.00016
Nuclear contribution   :     11.26886       9.12213      -0.00009
                        -----------------------------------------
Total Dipole Moment    :      0.54832       0.80270       0.00007
                        -----------------------------------------
Magnitude (a.u.)       :      0.97211
Magnitude (Debye)      :      2.47090

Rotational constants in cm-1:     0.037515     0.016062     0.015392
Rotational constants in MHz :  1124.656978   481.522817   461.431302

                             ****ORCA TERMINATED NORMALLY****
TOTAL RUN TIME: 0 days 0 hours 34 minutes 55 seconds 786 msec
