                         Program Version 4.1.x  -  STABLE  -
|  1> ! RHF DLPNO-CCSD(T) cc-pVDZ RIJK cc-pVTZ/JK cc-pVDZ/C
|  2> ! KDIIS SOSCF TightSCF TightPNO
|  3>
|  4> %pal nprocs 4 end
|  5>
|  6> %maxcore 8000
|  7>
|  8> %scf maxiter 300
|  9>      shift shift 0.2 erroff 0.1 end
| 10> end
| 11>
| 12> * xyzfile 0 1 Adamantyl_CMe2Cl_ts.xyz
| 13>
| 14>
| 15>                          ****END OF INPUT****

CARTESIAN COORDINATES (ANGSTROEM)
---------------------------------
  C      2.274100    0.878900   -1.258100
  C      1.668100    1.529400   -0.000600
  C      0.136200    1.338700   -0.000600
  C      1.938500   -0.624100   -1.253100
  C      0.405500   -0.814000   -1.253400
  C     -0.259400   -0.166200   -0.000000
  C      2.274000    0.879900    1.257500
  C      1.938300   -0.623000    1.253700
  C      0.405400   -0.812900    1.254000
  C      2.542000   -1.284400    0.000600
  C     -1.859000   -0.400600    0.000000
  C     -2.399400   -1.119600   -1.244800
  C     -2.399300   -1.119700    1.244900
  Cl    -2.793900    1.240300   -0.000000
  H      3.362500    1.024500   -1.277100
  H      1.871300    1.354200   -2.162600
  H      1.882200    2.606100   -0.001000
  H     -0.291900    1.834300   -0.878000
  H     -0.291900    1.834900    0.876600
  H      2.346600   -1.098900   -2.155100
  H      0.184700   -1.887500   -1.289300
  H     -0.004800   -0.371400   -2.167800
  H      1.871200    1.356100    2.161600
  H      3.362400    1.025600    1.276400
  H      2.346400   -1.097100    2.156100
  H     -0.005000   -0.369500    2.167900
  H      0.184500   -1.886400    1.290800
  H      3.634600   -1.172900    0.000600
  H      2.330400   -2.362400    0.001000
  H     -3.486700   -1.201100   -1.174300
  H     -2.162300   -0.590600   -2.169300
  H     -1.989000   -2.132900   -1.307500
  H     -3.486600   -1.201100    1.174400
  H     -1.988900   -2.133000    1.307400
  H     -2.162100   -0.590800    2.169400

 Total Charge           Charge          ....    0
 Multiplicity           Mult            ....    1
 Number of Electrons    NEL             ....  116
 Basis Dimension        Dim             ....  305

ORBITAL ENERGIES
----------------

  NO   OCC          E(Eh)            E(eV)
   0   2.0000    -104.791860     -2851.5315
   1   2.0000     -11.312605      -307.8316
   2   2.0000     -11.253578      -306.2254
   3   2.0000     -11.232209      -305.6440
   4   2.0000     -11.232191      -305.6435
   5   2.0000     -11.228260      -305.5365
   6   2.0000     -11.228247      -305.5361
   7   2.0000     -11.226128      -305.4785
   8   2.0000     -11.226110      -305.4780
   9   2.0000     -11.224179      -305.4254
  10   2.0000     -11.221844      -305.3619
  11   2.0000     -11.219692      -305.3034
  12   2.0000     -11.219641      -305.3020
  13   2.0000     -11.217510      -305.2440
  14   2.0000     -10.518718      -286.2289
  15   2.0000      -7.985943      -217.3086
  16   2.0000      -7.983112      -217.2315
  17   2.0000      -7.983078      -217.2306
  18   2.0000      -1.172245       -31.8984
  19   2.0000      -1.128101       -30.6972
  20   2.0000      -1.040512       -28.3138
  21   2.0000      -1.040153       -28.3040
  22   2.0000      -1.034472       -28.1494
  23   2.0000      -0.998940       -27.1825
  24   2.0000      -0.949224       -25.8297
  25   2.0000      -0.908035       -24.7089
  26   2.0000      -0.906306       -24.6618
  27   2.0000      -0.827382       -22.5142
  28   2.0000      -0.796481       -21.6733
  29   2.0000      -0.795786       -21.6544
  30   2.0000      -0.733350       -19.9555
  31   2.0000      -0.707768       -19.2593
  32   2.0000      -0.634973       -17.2785
  33   2.0000      -0.625869       -17.0308
  34   2.0000      -0.619530       -16.8583
  35   2.0000      -0.619231       -16.8501
  36   2.0000      -0.602756       -16.4018
  37   2.0000      -0.590897       -16.0791
  38   2.0000      -0.589334       -16.0366
  39   2.0000      -0.562601       -15.3091
  40   2.0000      -0.558102       -15.1867
  41   2.0000      -0.553510       -15.0618
  42   2.0000      -0.544276       -14.8105
  43   2.0000      -0.541256       -14.7283
  44   2.0000      -0.533578       -14.5194
  45   2.0000      -0.507628       -13.8133
  46   2.0000      -0.506607       -13.7855
  47   2.0000      -0.484221       -13.1763
  48   2.0000      -0.465948       -12.6791
  49   2.0000      -0.462667       -12.5898
  50   2.0000      -0.459099       -12.4927
  51   2.0000      -0.455946       -12.4069
  52   2.0000      -0.447286       -12.1713
  53   2.0000      -0.418461       -11.3869
  54   2.0000      -0.417039       -11.3482
  55   2.0000      -0.404756       -11.0140
  56   2.0000      -0.400712       -10.9039
  57   2.0000      -0.398080       -10.8323
  58   0.0000       0.158111         4.3024
  59   0.0000       0.180336         4.9072
  60   0.0000       0.191663         5.2154
  61   0.0000       0.204610         5.5677
  62   0.0000       0.210210         5.7201

MULLIKEN ATOMIC CHARGES
-----------------------
   0 C :    0.077679
   1 C :   -0.149693
   2 C :    0.142608
   3 C :   -0.134374
   4 C :    0.098137
   5 C :   -0.398073
   6 C :    0.077640
   7 C :   -0.134362
   8 C :    0.098181
   9 C :    0.077180
  10 C :   -0.321482
  11 C :    0.094129
  12 C :    0.094117
  13 Cl:   -0.198531
  14 H :    0.019053
  15 H :    0.020772
  16 H :    0.005549
  17 H :    0.037308
  18 H :    0.037348
  19 H :    0.003806
  20 H :    0.022669
  21 H :    0.030342
  22 H :    0.020786
  23 H :    0.019058
  24 H :    0.003814
  25 H :    0.030341
  26 H :    0.022678
  27 H :    0.020697
  28 H :    0.017582
  29 H :    0.049756
  30 H :    0.047653
  31 H :    0.035115
  32 H :    0.049755
  33 H :    0.035115
  34 H :    0.047651
Sum of atomic charges:    0.0000000

LOEWDIN ATOMIC CHARGES
----------------------
   0 C :   -0.018219
   1 C :   -0.030365
   2 C :   -0.017444
   3 C :   -0.028424
   4 C :   -0.014142
   5 C :   -0.044490
   6 C :   -0.018224
   7 C :   -0.028437
   8 C :   -0.014143
   9 C :   -0.018353
  10 C :   -0.037948
  11 C :   -0.044080
  12 C :   -0.044055
  13 Cl:   -0.036939
  14 H :    0.015817
  15 H :    0.016367
  16 H :    0.018068
  17 H :    0.016350
  18 H :    0.016372
  19 H :    0.017132
  20 H :    0.013962
  21 H :    0.017836
  22 H :    0.016377
  23 H :    0.015822
  24 H :    0.017140
  25 H :    0.017832
  26 H :    0.013981
  27 H :    0.016586
  28 H :    0.014820
  29 H :    0.026771
  30 H :    0.025304
  31 H :    0.023330
  32 H :    0.026767
  33 H :    0.023326
  34 H :    0.025301

  Mayer bond orders larger than 0.1
B(  0-C ,  1-C ) :   1.0226 B(  0-C ,  3-C ) :   1.0244 B(  0-C , 14-H ) :   0.9661
B(  0-C , 15-H ) :   0.9667 B(  1-C ,  2-C ) :   1.0335 B(  1-C ,  6-C ) :   1.0226
B(  1-C , 16-H ) :   0.9653 B(  2-C ,  5-C ) :   1.0116 B(  2-C , 17-H ) :   0.9577
B(  2-C , 18-H ) :   0.9577 B(  3-C ,  4-C ) :   1.0332 B(  3-C ,  9-C ) :   1.0241
B(  3-C , 19-H ) :   0.9632 B(  4-C ,  5-C ) :   1.0177 B(  4-C , 20-H ) :   0.9574
B(  4-C , 21-H ) :   0.9574 B(  5-C ,  8-C ) :   1.0177 B(  5-C , 10-C ) :   0.9360
B(  6-C ,  7-C ) :   1.0244 B(  6-C , 22-H ) :   0.9667 B(  6-C , 23-H ) :   0.9661
B(  7-C ,  8-C ) :   1.0332 B(  7-C ,  9-C ) :   1.0241 B(  7-C , 24-H ) :   0.9632
B(  8-C , 25-H ) :   0.9574 B(  8-C , 26-H ) :   0.9574 B(  9-C , 27-H ) :   0.9661
B(  9-C , 28-H ) :   0.9668 B( 10-C , 11-C ) :   1.0328 B( 10-C , 12-C ) :   1.0328
B( 10-C , 13-Cl) :   0.9926 B( 11-C , 29-H ) :   0.9730 B( 11-C , 30-H ) :   0.9732
B( 11-C , 31-H ) :   0.9643 B( 12-C , 32-H ) :   0.9730 B( 12-C , 33-H ) :   0.9643
B( 12-C , 34-H ) :   0.9732

E(0)                                       ...   -964.063535737
E(0)                                       ...   -964.063535737
E(CORR)(strong-pairs)                      ...     -2.119385676
E(CORR)(weak-pairs)                        ...     -0.002262859
E(CORR)(corrected)                         ...     -2.121648535
E(TOT)                                     ...   -966.185184272
E(CCSD(T))                                 ...   -966.257105375
FINAL SINGLE POINT ENERGY      -966.257105375236

DIPOLE MOMENT
-------------
                                X             Y             Z
Electronic contribution:    -11.15117       8.22427      -0.00009
Nuclear contribution   :     11.77985      -9.04572       0.00007
                        -----------------------------------------
Total Dipole Moment    :      0.62867      -0.82145      -0.00002
                        -----------------------------------------
Magnitude (a.u.)       :      1.03442
Magnitude (Debye)      :      2.62928

Rotational constants in cm-1:     0.037383     0.015386     0.014777
Rotational constants in MHz :  1120.726043   461.248490   442.997005

                             ****ORCA TERMINATED NORMALLY****
TOTAL RUN TIME: 0 days 0 hours 30 minutes 11 seconds 400 msec
