                         Program Version 4.1.x  -  STABLE  -
|  1> ! RHF DLPNO-CCSD(T) cc-pVDZ RIJK cc-pVTZ/JK cc-pVDZ/C
|  2> ! KDIIS SOSCF TightSCF TightPNO
|  3>
|  4> %pal nprocs 4 end
|  5>
|  6> %maxcore 8000
|  7>
|  8> %scf maxiter 300
|  9>      shift shift 0.2 erroff 0.1 end
| 10> end
| 11>
| 12> * xyzfile 0 1 aminocyclohexane_ax.xyz
| 13>
| 14>
| 15>                          ****END OF INPUT****

CARTESIAN COORDINATES (ANGSTROEM)
---------------------------------
  C     -1.147750   -0.000040    0.460160
  C     -0.282290   -1.266290    0.609760
  C      0.942060   -1.268380   -0.319600
  C      1.789410    0.000040   -0.128560
  C      0.942000    1.268400   -0.319580
  C     -0.282360    1.266270    0.609770
  N     -1.795020   -0.000020   -0.863410
  H      1.547670   -2.163250   -0.128870
  H      0.605850   -1.324200   -1.361750
  H      2.635500    0.000070   -0.826960
  H      2.220610    0.000030    0.884380
  H      0.605790    1.324220   -1.361720
  H      1.547570    2.163310   -0.128840
  H      0.051420   -1.328840    1.655090
  H     -0.900340   -2.156940    0.430420
  H     -0.900430    2.156900    0.430440
  H      0.051320    1.328800    1.655110
  H     -1.890210   -0.000070    1.277700
  H     -2.387950    0.818650   -0.976450
  H     -2.388100   -0.818590   -0.976410

 Total Charge           Charge          ....    0
 Multiplicity           Mult            ....    1
 Number of Electrons    NEL             ....   56
 Basis Dimension        Dim             ....  163

ORBITAL ENERGIES
----------------

  NO   OCC          E(Eh)            E(eV)
   0   2.0000     -15.535107      -422.7318
   1   2.0000     -11.250306      -306.1364
   2   2.0000     -11.217750      -305.2505
   3   2.0000     -11.217732      -305.2500
   4   2.0000     -11.214390      -305.1591
   5   2.0000     -11.212524      -305.1083
   6   2.0000     -11.212423      -305.1055
   7   2.0000      -1.178337       -32.0642
   8   2.0000      -1.080403       -29.3993
   9   2.0000      -0.995481       -27.0884
  10   2.0000      -0.971241       -26.4288
  11   2.0000      -0.826621       -22.4935
  12   2.0000      -0.812472       -22.1085
  13   2.0000      -0.730377       -19.8746
  14   2.0000      -0.647100       -17.6085
  15   2.0000      -0.646414       -17.5898
  16   2.0000      -0.613641       -16.6980
  17   2.0000      -0.594661       -16.1816
  18   2.0000      -0.571176       -15.5425
  19   2.0000      -0.531777       -14.4704
  20   2.0000      -0.517418       -14.0797
  21   2.0000      -0.501628       -13.6500
  22   2.0000      -0.495556       -13.4848
  23   2.0000      -0.471193       -12.8218
  24   2.0000      -0.452759       -12.3202
  25   2.0000      -0.430471       -11.7137
  26   2.0000      -0.419994       -11.4286
  27   2.0000      -0.375913       -10.2291
  28   0.0000       0.172798         4.7021
  29   0.0000       0.208456         5.6724
  30   0.0000       0.212720         5.7884
  31   0.0000       0.221582         6.0296
  32   0.0000       0.243211         6.6181

MULLIKEN ATOMIC CHARGES
-----------------------
   0 C :   -0.041556
   1 C :   -0.000588
   2 C :   -0.027571
   3 C :   -0.047148
   4 C :   -0.027570
   5 C :   -0.000593
   6 N :   -0.252584
   7 H :    0.017565
   8 H :    0.035987
   9 H :    0.020878
  10 H :    0.016589
  11 H :    0.035984
  12 H :    0.017566
  13 H :    0.020437
  14 H :    0.014887
  15 H :    0.014887
  16 H :    0.020436
  17 H :    0.000442
  18 H :    0.090978
  19 H :    0.090977
Sum of atomic charges:    0.0000000

LOEWDIN ATOMIC CHARGES
----------------------
   0 C :   -0.024720
   1 C :   -0.030041
   2 C :   -0.031585
   3 C :   -0.032785
   4 C :   -0.031587
   5 C :   -0.030040
   6 N :   -0.059987
   7 H :    0.016974
   8 H :    0.019939
   9 H :    0.018326
  10 H :    0.012981
  11 H :    0.019938
  12 H :    0.016976
  13 H :    0.017487
  14 H :    0.015340
  15 H :    0.015338
  16 H :    0.017486
  17 H :    0.001208
  18 H :    0.034376
  19 H :    0.034377

  Mayer bond orders larger than 0.1
B(  0-C ,  1-C ) :   1.0342 B(  0-C ,  5-C ) :   1.0342 B(  0-C ,  6-N ) :   1.0146
B(  0-C , 17-H ) :   0.9723 B(  1-C ,  2-C ) :   1.0352 B(  1-C , 13-H ) :   0.9654
B(  1-C , 14-H ) :   0.9691 B(  2-C ,  3-C ) :   1.0457 B(  2-C ,  7-H ) :   0.9720
B(  2-C ,  8-H ) :   0.9625 B(  3-C ,  4-C ) :   1.0457 B(  3-C ,  9-H ) :   0.9728
B(  3-C , 10-H ) :   0.9651 B(  4-C ,  5-C ) :   1.0352 B(  4-C , 11-H ) :   0.9625
B(  4-C , 12-H ) :   0.9720 B(  5-C , 15-H ) :   0.9691 B(  5-C , 16-H ) :   0.9654
B(  6-N , 18-H ) :   0.9838 B(  6-N , 19-H ) :   0.9838

E(0)                                       ...   -289.253148818
E(0)                                       ...   -289.253148818
E(CORR)(strong-pairs)                      ...     -1.109114206
E(CORR)(weak-pairs)                        ...     -0.000471409
E(CORR)(corrected)                         ...     -1.109585615
E(TOT)                                     ...   -290.362734433
E(CCSD(T))                                 ...   -290.396238882
FINAL SINGLE POINT ENERGY      -290.396238882040

DIPOLE MOMENT
-------------
                                X             Y             Z
Electronic contribution:     -1.24883      -0.00007      -0.36189
Nuclear contribution   :      0.83581       0.00011       0.60136
                        -----------------------------------------
Total Dipole Moment    :     -0.41302       0.00004       0.23947
                        -----------------------------------------
Magnitude (a.u.)       :      0.47742
Magnitude (Debye)      :      1.21351

Rotational constants in cm-1:     0.117311     0.085922     0.064503
Rotational constants in MHz :  3516.892005  2575.880817  1933.759122

                             ****ORCA TERMINATED NORMALLY****
TOTAL RUN TIME: 0 days 0 hours 3 minutes 17 seconds 464 msec
