                         Program Version 4.1.x  -  STABLE  -
|  1> ! RHF DLPNO-CCSD(T) cc-pVDZ RIJK cc-pVTZ/JK cc-pVDZ/C
|  2> ! KDIIS SOSCF TightSCF TightPNO
|  3>
|  4> %pal nprocs 4 end
|  5>
|  6> %maxcore 8000
|  7>
|  8> %scf maxiter 300
|  9>      shift shift 0.2 erroff 0.1 end
| 10> end
| 11>
| 12> * xyzfile 0 1 aminocyclohexane_eq.xyz
| 13>
| 14>
| 15>                          ****END OF INPUT****

CARTESIAN COORDINATES (ANGSTROEM)
---------------------------------
  C      1.030350    0.000010    0.314220
  C      0.311830   -1.261410   -0.186050
  C     -1.172760   -1.269550    0.213200
  C     -1.892110    0.000000   -0.270280
  C     -1.172730    1.269570    0.213200
  C      0.311860    1.261390   -0.186030
  N      2.419950   -0.000020   -0.163780
  H     -1.663420   -2.162960   -0.191690
  H     -1.256920   -1.337990    1.307700
  H     -2.934040    0.000050    0.073140
  H     -1.924330    0.000010   -1.369490
  H     -1.256940    1.338000    1.307690
  H     -1.663410    2.162950   -0.191730
  H      0.408570   -1.298500   -1.279760
  H      0.814760   -2.156120    0.206330
  H      0.814800    2.156140    0.206300
  H      0.408590    1.298480   -1.279740
  H      0.972950    0.000000    1.419960
  H      2.920560   -0.818850    0.174160
  H      2.920540    0.818890    0.173990

 Total Charge           Charge          ....    0
 Multiplicity           Mult            ....    1
 Number of Electrons    NEL             ....   56
 Basis Dimension        Dim             ....  163

ORBITAL ENERGIES
----------------

  NO   OCC          E(Eh)            E(eV)
   0   2.0000     -15.533732      -422.6944
   1   2.0000     -11.248622      -306.0906
   2   2.0000     -11.220806      -305.3337
   3   2.0000     -11.220665      -305.3298
   4   2.0000     -11.219572      -305.3001
   5   2.0000     -11.216659      -305.2208
   6   2.0000     -11.216641      -305.2203
   7   2.0000      -1.177038       -32.0288
   8   2.0000      -1.089502       -29.6469
   9   2.0000      -0.998932       -27.1823
  10   2.0000      -0.969932       -26.3932
  11   2.0000      -0.831250       -22.6195
  12   2.0000      -0.809458       -22.0265
  13   2.0000      -0.746850       -20.3228
  14   2.0000      -0.638732       -17.3808
  15   2.0000      -0.635654       -17.2970
  16   2.0000      -0.624233       -16.9862
  17   2.0000      -0.600481       -16.3399
  18   2.0000      -0.587373       -15.9832
  19   2.0000      -0.529566       -14.4102
  20   2.0000      -0.521792       -14.1987
  21   2.0000      -0.496782       -13.5181
  22   2.0000      -0.493761       -13.4359
  23   2.0000      -0.478155       -13.0113
  24   2.0000      -0.452582       -12.3154
  25   2.0000      -0.436058       -11.8657
  26   2.0000      -0.423166       -11.5149
  27   2.0000      -0.379171       -10.3178
  28   0.0000       0.179831         4.8934
  29   0.0000       0.193530         5.2662
  30   0.0000       0.205333         5.5874
  31   0.0000       0.213580         5.8118
  32   0.0000       0.246309         6.7024

MULLIKEN ATOMIC CHARGES
-----------------------
   0 C :   -0.031635
   1 C :    0.002071
   2 C :   -0.043817
   3 C :   -0.039367
   4 C :   -0.043818
   5 C :    0.002070
   6 N :   -0.255359
   7 H :    0.024214
   8 H :    0.021441
   9 H :    0.021899
  10 H :    0.025174
  11 H :    0.021442
  12 H :    0.024216
  13 H :    0.031201
  14 H :    0.015450
  15 H :    0.015452
  16 H :    0.031198
  17 H :    0.000116
  18 H :    0.089027
  19 H :    0.089025
Sum of atomic charges:   -0.0000000

LOEWDIN ATOMIC CHARGES
----------------------
   0 C :   -0.027131
   1 C :   -0.028961
   2 C :   -0.033036
   3 C :   -0.032946
   4 C :   -0.033028
   5 C :   -0.028972
   6 N :   -0.058071
   7 H :    0.020058
   8 H :    0.015330
   9 H :    0.018810
  10 H :    0.016862
  11 H :    0.015328
  12 H :    0.020059
  13 H :    0.019271
  14 H :    0.015544
  15 H :    0.015547
  16 H :    0.019272
  17 H :   -0.002744
  18 H :    0.034406
  19 H :    0.034403

  Mayer bond orders larger than 0.1
B(  0-C ,  1-C ) :   1.0190 B(  0-C ,  5-C ) :   1.0190 B(  0-C ,  6-N ) :   1.0485
B(  0-C , 17-H ) :   0.9569 B(  1-C ,  2-C ) :   1.0471 B(  1-C , 13-H ) :   0.9594
B(  1-C , 14-H ) :   0.9685 B(  2-C ,  3-C ) :   1.0437 B(  2-C ,  7-H ) :   0.9718
B(  2-C ,  8-H ) :   0.9628 B(  3-C ,  4-C ) :   1.0437 B(  3-C ,  9-H ) :   0.9726
B(  3-C , 10-H ) :   0.9646 B(  4-C ,  5-C ) :   1.0471 B(  4-C , 11-H ) :   0.9628
B(  4-C , 12-H ) :   0.9718 B(  5-C , 15-H ) :   0.9685 B(  5-C , 16-H ) :   0.9594
B(  6-N , 18-H ) :   0.9823 B(  6-N , 19-H ) :   0.9823

E(0)                                       ...   -289.254133901
E(0)                                       ...   -289.254133901
E(CORR)(strong-pairs)                      ...     -1.108426678
E(CORR)(weak-pairs)                        ...     -0.000464149
E(CORR)(corrected)                         ...     -1.108890827
E(TOT)                                     ...   -290.363024728
E(CCSD(T))                                 ...   -290.396450995
FINAL SINGLE POINT ENERGY      -290.396450995488

DIPOLE MOMENT
-------------
                                X             Y             Z
Electronic contribution:      1.54528      -0.00005      -0.12589
Nuclear contribution   :     -1.51017       0.00010       0.58951
                        -----------------------------------------
Total Dipole Moment    :      0.03512       0.00005       0.46362
                        -----------------------------------------
Magnitude (a.u.)       :      0.46495
Magnitude (Debye)      :      1.18182

Rotational constants in cm-1:     0.141244     0.073489     0.052971
Rotational constants in MHz :  4234.376186  2203.157735  1588.017556

                             ****ORCA TERMINATED NORMALLY****
TOTAL RUN TIME: 0 days 0 hours 3 minutes 18 seconds 132 msec
