                         Program Version 4.1.x  -  STABLE  -
|  1> ! RHF DLPNO-CCSD(T) cc-pVDZ RIJK cc-pVTZ/JK cc-pVDZ/C
|  2> ! KDIIS SOSCF TightSCF TightPNO
|  3>
|  4> %pal nprocs 4 end
|  5>
|  6> %maxcore 8000
|  7>
|  8> %scf maxiter 300
|  9>      shift shift 0.2 erroff 0.1 end
| 10> end
| 11>
| 12> * xyzfile 0 1 bicyclooctyl_CMe2Cl.xyz
| 13>
| 14>
| 15>                          ****END OF INPUT****

CARTESIAN COORDINATES (ANGSTROEM)
---------------------------------
  C     -2.385190   -1.202380    0.000000
  C     -1.696300    0.189120    0.000000
  C     -1.336450   -2.316580    0.000000
  C     -0.151550    0.039730    0.000000
  C     -0.456650   -2.174530    1.242440
  C      0.228890   -0.783490    1.255040
  C     -0.456650   -2.174530   -1.242440
  C      0.228890   -0.783490   -1.255040
  C      0.528820    1.454560    0.000000
  C      0.228890    2.295600    1.244910
  Cl     2.369830    1.239160    0.000000
  C      0.228890    2.295600   -1.244910
  H     -3.027490   -1.302940   -0.870650
  H     -3.027490   -1.302940    0.870650
  H     -2.017090    0.750430    0.870020
  H     -2.017090    0.750430   -0.870020
  H     -1.827730   -3.286420    0.000000
  H      0.290210   -2.963550    1.253530
  H     -1.058360   -2.306520    2.137790
  H      1.304000   -0.896670    1.305450
  H     -0.070050   -0.247060    2.147850
  H     -1.058360   -2.306520   -2.137790
  H      0.290210   -2.963550   -1.253530
  H     -0.070050   -0.247060   -2.147850
  H      1.304000   -0.896670   -1.305450
  H      0.766920    3.233580    1.185700
  H     -0.829990    2.522560    1.300000
  H      0.527460    1.801730    2.158280
  H      0.766920    3.233580   -1.185700
  H      0.527460    1.801730   -2.158280
  H     -0.829990    2.522560   -1.300000

 Total Charge           Charge          ....    0
 Multiplicity           Mult            ....    1
 Number of Electrons    NEL             ....  102
 Basis Dimension        Dim             ....  267

ORBITAL ENERGIES
----------------

  NO   OCC          E(Eh)            E(eV)
   0   2.0000    -104.795113     -2851.6200
   1   2.0000     -11.305644      -307.6422
   2   2.0000     -11.245446      -306.0041
   3   2.0000     -11.228007      -305.5296
   4   2.0000     -11.227991      -305.5292
   5   2.0000     -11.225507      -305.4616
   6   2.0000     -11.221377      -305.3492
   7   2.0000     -11.220763      -305.3325
   8   2.0000     -11.217173      -305.2348
   9   2.0000     -11.217113      -305.2332
  10   2.0000     -11.216292      -305.2108
  11   2.0000     -11.216273      -305.2103
  12   2.0000     -10.522428      -286.3298
  13   2.0000      -7.989698      -217.4107
  14   2.0000      -7.986800      -217.3319
  15   2.0000      -7.986763      -217.3309
  16   2.0000      -1.170698       -31.8563
  17   2.0000      -1.124818       -30.6078
  18   2.0000      -1.030221       -28.0337
  19   2.0000      -1.006441       -27.3867
  20   2.0000      -1.003598       -27.3093
  21   2.0000      -0.995474       -27.0882
  22   2.0000      -0.948382       -25.8068
  23   2.0000      -0.840161       -22.8619
  24   2.0000      -0.835849       -22.7446
  25   2.0000      -0.833338       -22.6763
  26   2.0000      -0.752842       -20.4859
  27   2.0000      -0.682517       -18.5722
  28   2.0000      -0.659680       -17.9508
  29   2.0000      -0.651126       -17.7180
  30   2.0000      -0.648656       -17.6508
  31   2.0000      -0.611566       -16.6416
  32   2.0000      -0.593245       -16.1430
  33   2.0000      -0.588298       -16.0084
  34   2.0000      -0.567606       -15.4454
  35   2.0000      -0.557419       -15.1681
  36   2.0000      -0.543328       -14.7847
  37   2.0000      -0.526746       -14.3335
  38   2.0000      -0.519390       -14.1333
  39   2.0000      -0.518512       -14.1094
  40   2.0000      -0.505614       -13.7585
  41   2.0000      -0.503456       -13.6997
  42   2.0000      -0.493341       -13.4245
  43   2.0000      -0.483585       -13.1590
  44   2.0000      -0.468334       -12.7440
  45   2.0000      -0.459851       -12.5132
  46   2.0000      -0.429290       -11.6816
  47   2.0000      -0.418665       -11.3924
  48   2.0000      -0.411835       -11.2066
  49   2.0000      -0.404623       -11.0103
  50   2.0000      -0.404565       -11.0088
  51   0.0000       0.163622         4.4524
  52   0.0000       0.190312         5.1786
  53   0.0000       0.197412         5.3719
  54   0.0000       0.203241         5.5305
  55   0.0000       0.214602         5.8396

MULLIKEN ATOMIC CHARGES
-----------------------
   0 C :    0.052800
   1 C :    0.069844
   2 C :   -0.185394
   3 C :   -0.419863
   4 C :    0.050138
   5 C :    0.090373
   6 C :    0.050138
   7 C :    0.090373
   8 C :   -0.379743
   9 C :    0.112617
  10 Cl:   -0.170213
  11 C :    0.112617
  12 H :    0.019756
  13 H :    0.019756
  14 H :    0.024608
  15 H :    0.024608
  16 H :   -0.003864
  17 H :    0.021686
  18 H :    0.016670
  19 H :    0.040460
  20 H :    0.021225
  21 H :    0.016670
  22 H :    0.021686
  23 H :    0.021225
  24 H :    0.040460
  25 H :    0.042674
  26 H :    0.033045
  27 H :    0.044963
  28 H :    0.042674
  29 H :    0.044963
  30 H :    0.033045
Sum of atomic charges:   -0.0000000

LOEWDIN ATOMIC CHARGES
----------------------
   0 C :   -0.016374
   1 C :   -0.013983
   2 C :   -0.038431
   3 C :   -0.058090
   4 C :   -0.017777
   5 C :   -0.014311
   6 C :   -0.017777
   7 C :   -0.014311
   8 C :   -0.063346
   9 C :   -0.038323
  10 Cl:   -0.013431
  11 C :   -0.038323
  12 H :    0.016355
  13 H :    0.016355
  14 H :    0.014382
  15 H :    0.014382
  16 H :    0.014991
  17 H :    0.016913
  18 H :    0.015178
  19 H :    0.016574
  20 H :    0.013780
  21 H :    0.015178
  22 H :    0.016913
  23 H :    0.013780
  24 H :    0.016574
  25 H :    0.026102
  26 H :    0.021933
  27 H :    0.023528
  28 H :    0.026102
  29 H :    0.023528
  30 H :    0.021933

  Mayer bond orders larger than 0.1
B(  0-C ,  1-C ) :   1.0444 B(  0-C ,  2-C ) :   1.0315 B(  0-C , 12-H ) :   0.9676
B(  0-C , 13-H ) :   0.9676 B(  1-C ,  3-C ) :   1.0000 B(  1-C , 14-H ) :   0.9624
B(  1-C , 15-H ) :   0.9624 B(  2-C ,  4-C ) :   1.0316 B(  2-C ,  6-C ) :   1.0316
B(  2-C , 16-H ) :   0.9692 B(  3-C ,  5-C ) :   1.0091 B(  3-C ,  7-C ) :   1.0091
B(  3-C ,  8-C ) :   1.0128 B(  4-C ,  5-C ) :   1.0442 B(  4-C , 17-H ) :   0.9670
B(  4-C , 18-H ) :   0.9676 B(  5-C , 19-H ) :   0.9605 B(  5-C , 20-H ) :   0.9598
B(  6-C ,  7-C ) :   1.0442 B(  6-C , 21-H ) :   0.9676 B(  6-C , 22-H ) :   0.9670
B(  7-C , 23-H ) :   0.9598 B(  7-C , 24-H ) :   0.9605 B(  8-C ,  9-C ) :   1.0192
B(  8-C , 10-Cl) :   0.9959 B(  8-C , 11-C ) :   1.0192 B(  9-C , 25-H ) :   0.9749
B(  9-C , 26-H ) :   0.9679 B(  9-C , 27-H ) :   0.9758 B( 11-C , 28-H ) :   0.9749
B( 11-C , 29-H ) :   0.9758 B( 11-C , 30-H ) :   0.9679

E(0)                                       ...   -887.150800246
E(0)                                       ...   -887.150800246
E(CORR)(strong-pairs)                      ...     -1.829160467
E(CORR)(weak-pairs)                        ...     -0.001650823
E(CORR)(corrected)                         ...     -1.830811290
E(TOT)                                     ...   -888.981611536
E(CCSD(T))                                 ...   -889.041299823
FINAL SINGLE POINT ENERGY      -889.041299823112

DIPOLE MOMENT
-------------
                                X             Y             Z
Electronic contribution:     12.81477       3.98549      -0.00000
Nuclear contribution   :    -13.79531      -3.97654       0.00000
                        -----------------------------------------
Total Dipole Moment    :     -0.98054       0.00895      -0.00000
                        -----------------------------------------
Magnitude (a.u.)       :      0.98058
Magnitude (Debye)      :      2.49244

Rotational constants in cm-1:     0.047192     0.020300     0.019249
Rotational constants in MHz :  1414.793367   608.567415   577.083577

                             ****ORCA TERMINATED NORMALLY****
TOTAL RUN TIME: 0 days 0 hours 17 minutes 58 seconds 50 msec
