                         Program Version 4.1.x  -  STABLE  -
|  1> ! RHF DLPNO-CCSD(T) cc-pVDZ RIJK cc-pVTZ/JK cc-pVDZ/C
|  2> ! KDIIS SOSCF TightSCF TightPNO
|  3>
|  4> %pal nprocs 4 end
|  5>
|  6> %maxcore 8000
|  7>
|  8> %scf maxiter 300
|  9>      shift shift 0.2 erroff 0.1 end
| 10> end
| 11>
| 12> * xyzfile 0 1 bicyclooctyl_CMe2Cl_ts.xyz
| 13>
| 14>
| 15>                          ****END OF INPUT****

CARTESIAN COORDINATES (ANGSTROEM)
---------------------------------
  C     -2.310300   -0.717500   -1.145400
  C     -0.757400   -0.801400   -1.239900
  C     -2.719100    0.219600    0.000400
  C     -0.075100   -0.142200   -0.003300
  C     -1.994700    1.561200   -0.179400
  C     -0.458000    1.366100   -0.025600
  C     -2.267300   -0.405600    1.327900
  C     -0.750600   -0.754600    1.262700
  C      1.517900   -0.397200    0.003200
  C      2.049400   -1.117300   -1.246500
  Cl     2.475900    1.230900    0.001800
  C      2.050400   -1.129500    1.243000
  H     -2.736400   -1.714000   -0.974400
  H     -2.726300   -0.359500   -2.094500
  H     -0.414300   -0.300400   -2.150900
  H     -0.459300   -1.849900   -1.327800
  H     -3.805800    0.368200    0.000200
  H     -2.357900    2.287900    0.557000
  H     -2.230400    1.975500   -1.167600
  H     -0.102800    1.837800    0.895500
  H      0.063100    1.867600   -0.844000
  H     -2.852600   -1.308100    1.541500
  H     -2.463000    0.294400    2.149600
  H     -0.623200   -1.843000    1.254100
  H     -0.257000   -0.388800    2.166400
  H      3.138800   -1.180300   -1.194100
  H      1.656000   -2.138000   -1.295100
  H      1.786300   -0.598700   -2.170000
  H      3.132100   -1.255200    1.153400
  H      1.852500   -0.586300    2.168200
  H      1.599300   -2.124600    1.319000

 Total Charge           Charge          ....    0
 Multiplicity           Mult            ....    1
 Number of Electrons    NEL             ....  102
 Basis Dimension        Dim             ....  267

ORBITAL ENERGIES
----------------

  NO   OCC          E(Eh)            E(eV)
   0   2.0000    -104.792108     -2851.5382
   1   2.0000     -11.313309      -307.8508
   2   2.0000     -11.253480      -306.2228
   3   2.0000     -11.232782      -305.6595
   4   2.0000     -11.232354      -305.6479
   5   2.0000     -11.228119      -305.5327
   6   2.0000     -11.227658      -305.5201
   7   2.0000     -11.225290      -305.4557
   8   2.0000     -11.224596      -305.4368
   9   2.0000     -11.224121      -305.4238
  10   2.0000     -11.220251      -305.3185
  11   2.0000     -11.218987      -305.2841
  12   2.0000     -10.518974      -286.2358
  13   2.0000      -7.986197      -217.3155
  14   2.0000      -7.983365      -217.2384
  15   2.0000      -7.983329      -217.2374
  16   2.0000      -1.162719       -31.6392
  17   2.0000      -1.119483       -30.4627
  18   2.0000      -1.026683       -27.9375
  19   2.0000      -1.004310       -27.3287
  20   2.0000      -1.003031       -27.2939
  21   2.0000      -0.989764       -26.9328
  22   2.0000      -0.944603       -25.7040
  23   2.0000      -0.834988       -22.7212
  24   2.0000      -0.834044       -22.6955
  25   2.0000      -0.827482       -22.5169
  26   2.0000      -0.750757       -20.4291
  27   2.0000      -0.681910       -18.5557
  28   2.0000      -0.655994       -17.8505
  29   2.0000      -0.650939       -17.7130
  30   2.0000      -0.646452       -17.5909
  31   2.0000      -0.603964       -16.4347
  32   2.0000      -0.593970       -16.1627
  33   2.0000      -0.582627       -15.8541
  34   2.0000      -0.562397       -15.3036
  35   2.0000      -0.553215       -15.0537
  36   2.0000      -0.530716       -14.4415
  37   2.0000      -0.528304       -14.3759
  38   2.0000      -0.521576       -14.1928
  39   2.0000      -0.519435       -14.1345
  40   2.0000      -0.512948       -13.9580
  41   2.0000      -0.500508       -13.6195
  42   2.0000      -0.487961       -13.2781
  43   2.0000      -0.483151       -13.1472
  44   2.0000      -0.461778       -12.5656
  45   2.0000      -0.460189       -12.5224
  46   2.0000      -0.423739       -11.5305
  47   2.0000      -0.421056       -11.4575
  48   2.0000      -0.411725       -11.2036
  49   2.0000      -0.403442       -10.9782
  50   2.0000      -0.400217       -10.8904
  51   0.0000       0.158470         4.3122
  52   0.0000       0.179538         4.8855
  53   0.0000       0.190628         5.1872
  54   0.0000       0.203218         5.5298
  55   0.0000       0.204569         5.5666

MULLIKEN ATOMIC CHARGES
-----------------------
   0 C :    0.059479
   1 C :    0.040497
   2 C :   -0.188405
   3 C :   -0.411875
   4 C :    0.044347
   5 C :    0.083702
   6 C :    0.060341
   7 C :    0.038648
   8 C :   -0.331280
   9 C :    0.093457
  10 Cl:   -0.197962
  11 C :    0.094776
  12 H :    0.021657
  13 H :    0.026653
  14 H :    0.032776
  15 H :    0.027232
  16 H :    0.001486
  17 H :    0.025837
  18 H :    0.022045
  19 H :    0.036299
  20 H :    0.045147
  21 H :    0.024468
  22 H :    0.024384
  23 H :    0.024929
  24 H :    0.034502
  25 H :    0.051116
  26 H :    0.035013
  27 H :    0.047046
  28 H :    0.048881
  29 H :    0.048993
  30 H :    0.035809
Sum of atomic charges:    0.0000000

LOEWDIN ATOMIC CHARGES
----------------------
   0 C :   -0.019328
   1 C :   -0.019661
   2 C :   -0.039645
   3 C :   -0.048841
   4 C :   -0.021913
   5 C :   -0.022774
   6 C :   -0.019317
   7 C :   -0.019859
   8 C :   -0.037608
   9 C :   -0.044046
  10 Cl:   -0.036725
  11 C :   -0.043719
  12 H :    0.016443
  13 H :    0.018844
  14 H :    0.018163
  15 H :    0.015518
  16 H :    0.016034
  17 H :    0.018499
  18 H :    0.016729
  19 H :    0.017103
  20 H :    0.016533
  21 H :    0.017836
  22 H :    0.017750
  23 H :    0.013973
  24 H :    0.019094
  25 H :    0.026586
  26 H :    0.022761
  27 H :    0.025440
  28 H :    0.027006
  29 H :    0.025208
  30 H :    0.023916

  Mayer bond orders larger than 0.1
B(  0-C ,  1-C ) :   1.0383 B(  0-C ,  2-C ) :   1.0288 B(  0-C , 12-H ) :   0.9670
B(  0-C , 13-H ) :   0.9672 B(  1-C ,  3-C ) :   1.0240 B(  1-C , 14-H ) :   0.9609
B(  1-C , 15-H ) :   0.9611 B(  2-C ,  4-C ) :   1.0275 B(  2-C ,  6-C ) :   1.0288
B(  2-C , 16-H ) :   0.9703 B(  3-C ,  5-C ) :   1.0170 B(  3-C ,  7-C ) :   1.0235
B(  3-C ,  8-C ) :   0.9402 B(  4-C ,  5-C ) :   1.0378 B(  4-C , 17-H ) :   0.9681
B(  4-C , 18-H ) :   0.9675 B(  5-C , 19-H ) :   0.9622 B(  5-C , 20-H ) :   0.9612
B(  6-C ,  7-C ) :   1.0386 B(  6-C , 21-H ) :   0.9673 B(  6-C , 22-H ) :   0.9672
B(  7-C , 23-H ) :   0.9610 B(  7-C , 24-H ) :   0.9609 B(  8-C ,  9-C ) :   1.0305
B(  8-C , 10-Cl) :   0.9923 B(  8-C , 11-C ) :   1.0326 B(  9-C , 25-H ) :   0.9729
B(  9-C , 26-H ) :   0.9657 B(  9-C , 27-H ) :   0.9729 B( 11-C , 28-H ) :   0.9733
B( 11-C , 29-H ) :   0.9736 B( 11-C , 30-H ) :   0.9632

E(0)                                       ...   -887.134992507
E(0)                                       ...   -887.134992507
E(CORR)(strong-pairs)                      ...     -1.834254127
E(CORR)(weak-pairs)                        ...     -0.001615699
E(CORR)(corrected)                         ...     -1.835869825
E(TOT)                                     ...   -888.970862332
E(CCSD(T))                                 ...   -889.031393825
FINAL SINGLE POINT ENERGY      -889.031393825153

DIPOLE MOMENT
-------------
                                X             Y             Z
Electronic contribution:     11.00999       8.17709       0.01553
Nuclear contribution   :    -11.63703      -9.00367      -0.01644
                        -----------------------------------------
Total Dipole Moment    :     -0.62704      -0.82658      -0.00091
                        -----------------------------------------
Magnitude (a.u.)       :      1.03750
Magnitude (Debye)      :      2.63713

Rotational constants in cm-1:     0.047178     0.019413     0.018462
Rotational constants in MHz :  1414.363160   581.997785   553.465633

                             ****ORCA TERMINATED NORMALLY****
TOTAL RUN TIME: 0 days 0 hours 17 minutes 36 seconds 555 msec
