                         Program Version 4.1.x  -  STABLE  -
|  1> ! RHF DLPNO-CCSD(T) cc-pVDZ RIJK cc-pVTZ/JK cc-pVDZ/C
|  2> ! KDIIS SOSCF TightSCF TightPNO
|  3>
|  4> %pal nprocs 8 end
|  5>
|  6> %maxcore 8000
|  7>
|  8> %scf maxiter 300
|  9>      shift shift 0.2 erroff 0.1 end
| 10> end
| 11>
| 12> * xyzfile 0 1 BisSiMe3_cycl_diaxial.xyz
| 13>
| 14>
| 15>                          ****END OF INPUT****

CARTESIAN COORDINATES (ANGSTROEM)
---------------------------------
  C      0.580060    2.580990    0.502840
  C     -0.579700    2.581090   -0.502850
  C     -0.553540    1.314390   -1.371190
  C     -0.556030   -0.002710   -0.552060
  C      0.555990   -0.002750    0.552120
  C      0.553570    1.314370    1.371210
  Si    -2.284740   -0.584570    0.062300
  C     -2.137920   -2.419760    0.528070
  Si     2.284680   -0.584650   -0.062290
  C      2.137770   -2.419800   -0.528160
  C     -2.978180    0.335490    1.572190
  C     -3.536670   -0.429180   -1.356790
  C      2.978160    0.335420   -1.572150
  C      3.536630   -0.429360    1.356790
  H     -1.395510    1.322760   -2.073920
  H      0.352480    1.352410   -1.991240
  H     -0.323700   -0.809420   -1.268370
  H      0.323660   -0.809460    1.268430
  H     -1.530780    2.645420    0.043830
  H     -0.529760    3.470370   -1.143870
  H      1.395380    1.322650    2.074130
  H     -0.352600    1.352570    1.991030
  H      1.531160    2.645030   -0.043840
  H      0.530340    3.470330    1.143790
  H     -3.960840   -0.077970    1.831650
  H     -2.334770    0.223760    2.451700
  H     -3.109690    1.406850    1.387580
  H     -4.485700   -0.904890   -1.081810
  H     -3.752350    0.616910   -1.601470
  H     -3.175950   -0.916970   -2.270200
  H     -3.108190   -2.812680    0.854350
  H     -1.804610   -3.025360   -0.322830
  H     -1.427800   -2.580530    1.347390
  H      3.960760   -0.078120   -1.831670
  H      2.334700    0.223820   -2.451650
  H      3.109810    1.406760   -1.387490
  H      4.485660   -0.905070    1.081780
  H      3.752320    0.616710    1.601520
  H      3.175920   -0.917190    2.270170
  H      3.108040   -2.812760   -0.854420
  H      1.804400   -3.025440    0.322690
  H      1.427670   -2.580500   -1.347520

 Total Charge           Charge          ....    0
 Multiplicity           Mult            ....    1
 Number of Electrons    NEL             ....  128
 Basis Dimension        Dim             ....  344

ORBITAL ENERGIES
----------------

  NO   OCC          E(Eh)            E(eV)
   0   2.0000     -68.755422     -1870.9302
   1   2.0000     -68.755422     -1870.9301
   2   2.0000     -11.221369      -305.3490
   3   2.0000     -11.221361      -305.3488
   4   2.0000     -11.219692      -305.3034
   5   2.0000     -11.219116      -305.2877
   6   2.0000     -11.213653      -305.1390
   7   2.0000     -11.213144      -305.1252
   8   2.0000     -11.202838      -304.8447
   9   2.0000     -11.202837      -304.8447
  10   2.0000     -11.202065      -304.8237
  11   2.0000     -11.202063      -304.8236
  12   2.0000     -11.201151      -304.7988
  13   2.0000     -11.201150      -304.7988
  14   2.0000      -6.103309      -166.0795
  15   2.0000      -6.103306      -166.0794
  16   2.0000      -4.209394      -114.5434
  17   2.0000      -4.209393      -114.5434
  18   2.0000      -4.209358      -114.5425
  19   2.0000      -4.209357      -114.5424
  20   2.0000      -4.209059      -114.5343
  21   2.0000      -4.209058      -114.5343
  22   2.0000      -1.102395       -29.9977
  23   2.0000      -0.997915       -27.1547
  24   2.0000      -0.997602       -27.1461
  25   2.0000      -0.958457       -26.0809
  26   2.0000      -0.950451       -25.8631
  27   2.0000      -0.916968       -24.9520
  28   2.0000      -0.916783       -24.9469
  29   2.0000      -0.916569       -24.9411
  30   2.0000      -0.915208       -24.9041
  31   2.0000      -0.823371       -22.4051
  32   2.0000      -0.823344       -22.4043
  33   2.0000      -0.735890       -20.0246
  34   2.0000      -0.647689       -17.6245
  35   2.0000      -0.628464       -17.1014
  36   2.0000      -0.615857       -16.7583
  37   2.0000      -0.611585       -16.6421
  38   2.0000      -0.584341       -15.9007
  39   2.0000      -0.568727       -15.4759
  40   2.0000      -0.559742       -15.2314
  41   2.0000      -0.553632       -15.0651
  42   2.0000      -0.553140       -15.0517
  43   2.0000      -0.552031       -15.0215
  44   2.0000      -0.549466       -14.9517
  45   2.0000      -0.538852       -14.6629
  46   2.0000      -0.536444       -14.5974
  47   2.0000      -0.533093       -14.5062
  48   2.0000      -0.531081       -14.4515
  49   2.0000      -0.525662       -14.3040
  50   2.0000      -0.523203       -14.2371
  51   2.0000      -0.515094       -14.0164
  52   2.0000      -0.510866       -13.9014
  53   2.0000      -0.510145       -13.8818
  54   2.0000      -0.508413       -13.8346
  55   2.0000      -0.461384       -12.5549
  56   2.0000      -0.436687       -11.8829
  57   2.0000      -0.433137       -11.7863
  58   2.0000      -0.430790       -11.7224
  59   2.0000      -0.417094       -11.3497
  60   2.0000      -0.416715       -11.3394
  61   2.0000      -0.409371       -11.1396
  62   2.0000      -0.408362       -11.1121
  63   2.0000      -0.352088        -9.5808
  64   0.0000       0.150075         4.0838
  65   0.0000       0.172814         4.7025
  66   0.0000       0.189689         5.1617
  67   0.0000       0.190613         5.1868
  68   0.0000       0.213137         5.7998

MULLIKEN ATOMIC CHARGES
-----------------------
   0 C :   -0.039347
   1 C :   -0.039356
   2 C :    0.013802
   3 C :   -0.329737
   4 C :   -0.329733
   5 C :    0.013814
   6 Si:    0.739695
   7 C :   -0.299789
   8 Si:    0.739675
   9 C :   -0.299791
  10 C :   -0.305916
  11 C :   -0.300872
  12 C :   -0.305912
  13 C :   -0.300864
  14 H :    0.023765
  15 H :    0.023285
  16 H :    0.028713
  17 H :    0.028710
  18 H :    0.022229
  19 H :    0.021068
  20 H :    0.023763
  21 H :    0.023279
  22 H :    0.022229
  23 H :    0.021068
  24 H :    0.043545
  25 H :    0.048710
  26 H :    0.044613
  27 H :    0.044920
  28 H :    0.045724
  29 H :    0.044175
  30 H :    0.044111
  31 H :    0.044623
  32 H :    0.042692
  33 H :    0.043543
  34 H :    0.048711
  35 H :    0.044613
  36 H :    0.044920
  37 H :    0.045723
  38 H :    0.044173
  39 H :    0.044111
  40 H :    0.044623
  41 H :    0.042694
Sum of atomic charges:    0.0000000

LOEWDIN ATOMIC CHARGES
----------------------
   0 C :   -0.032501
   1 C :   -0.032496
   2 C :   -0.031972
   3 C :   -0.155309
   4 C :   -0.155305
   5 C :   -0.031976
   6 Si:    0.524185
   7 C :   -0.210958
   8 Si:    0.524181
   9 C :   -0.210960
  10 C :   -0.214535
  11 C :   -0.212263
  12 C :   -0.214535
  13 C :   -0.212261
  14 H :    0.018626
  15 H :    0.016233
  16 H :    0.023099
  17 H :    0.023097
  18 H :    0.014294
  19 H :    0.019247
  20 H :    0.018624
  21 H :    0.016234
  22 H :    0.014295
  23 H :    0.019248
  24 H :    0.029178
  25 H :    0.026344
  26 H :    0.024352
  27 H :    0.028560
  28 H :    0.026094
  29 H :    0.027367
  30 H :    0.028023
  31 H :    0.027069
  32 H :    0.024866
  33 H :    0.029176
  34 H :    0.026345
  35 H :    0.024353
  36 H :    0.028562
  37 H :    0.026094
  38 H :    0.027365
  39 H :    0.028025
  40 H :    0.027068
  41 H :    0.024868

  Mayer bond orders larger than 0.1
B(  0-C ,  1-C ) :   1.0460 B(  0-C ,  5-C ) :   1.0438 B(  0-C , 22-H ) :   0.9636
B(  0-C , 23-H ) :   0.9721 B(  1-C ,  2-C ) :   1.0438 B(  1-C , 18-H ) :   0.9636
B(  1-C , 19-H ) :   0.9721 B(  2-C ,  3-C ) :   1.0402 B(  2-C , 14-H ) :   0.9709
B(  2-C , 15-H ) :   0.9609 B(  3-C ,  4-C ) :   1.0229 B(  3-C ,  6-Si) :   0.9304
B(  3-C , 16-H ) :   0.9368 B(  4-C ,  5-C ) :   1.0402 B(  4-C ,  8-Si) :   0.9304
B(  4-C , 17-H ) :   0.9368 B(  5-C , 20-H ) :   0.9709 B(  5-C , 21-H ) :   0.9609
B(  6-Si,  7-C ) :   1.0210 B(  6-Si, 10-C ) :   1.0069 B(  6-Si, 11-C ) :   1.0201
B(  7-C , 30-H ) :   0.9692 B(  7-C , 31-H ) :   0.9684 B(  7-C , 32-H ) :   0.9693
B(  8-Si,  9-C ) :   1.0210 B(  8-Si, 12-C ) :   1.0069 B(  8-Si, 13-C ) :   1.0201
B(  9-C , 39-H ) :   0.9692 B(  9-C , 40-H ) :   0.9684 B(  9-C , 41-H ) :   0.9693
B( 10-C , 24-H ) :   0.9683 B( 10-C , 25-H ) :   0.9683 B( 10-C , 26-H ) :   0.9728
B( 11-C , 27-H ) :   0.9693 B( 11-C , 28-H ) :   0.9684 B( 11-C , 29-H ) :   0.9684
B( 12-C , 33-H ) :   0.9683 B( 12-C , 34-H ) :   0.9683 B( 12-C , 35-H ) :   0.9728
B( 13-C , 36-H ) :   0.9693 B( 13-C , 37-H ) :   0.9684 B( 13-C , 38-H ) :   0.9684

E(0)                                       ...  -1048.672623760
E(0)                                       ...  -1048.672623760
E(CORR)(strong-pairs)                      ...     -2.121367009
E(CORR)(weak-pairs)                        ...     -0.001954543
E(CORR)(corrected)                         ...     -2.123321551
E(TOT)                                     ...  -1050.795945312
E(CCSD(T))                                 ...  -1050.861866769
FINAL SINGLE POINT ENERGY     -1050.861866768617

DIPOLE MOMENT
-------------
                                X             Y             Z
Electronic contribution:     -0.00004       0.16304       0.00028
Nuclear contribution   :      0.00004      -0.11470      -0.00027
                        -----------------------------------------
Total Dipole Moment    :      0.00001       0.04834       0.00000
                        -----------------------------------------
Magnitude (a.u.)       :      0.04834
Magnitude (Debye)      :      0.12288

Rotational constants in cm-1:     0.023772     0.012320     0.010522
Rotational constants in MHz :   712.675871   369.356504   315.448572

                             ****ORCA TERMINATED NORMALLY****
TOTAL RUN TIME: 0 days 0 hours 11 minutes 14 seconds 564 msec
