                         Program Version 4.1.x  -  STABLE  -
|  1> ! RHF DLPNO-CCSD(T) cc-pVDZ RIJK cc-pVTZ/JK cc-pVDZ/C
|  2> ! KDIIS SOSCF TightSCF TightPNO
|  3>
|  4> %pal nprocs 8 end
|  5>
|  6> %maxcore 8000
|  7>
|  8> %scf maxiter 300
|  9>      shift shift 0.2 erroff 0.1 end
| 10> end
| 11>
| 12> * xyzfile 0 1 BisSiMe3_cycl_dieq.xyz
| 13>
| 14>
| 15>                          ****END OF INPUT****

CARTESIAN COORDINATES (ANGSTROEM)
---------------------------------
  C      0.667170    3.241640   -0.371860
  C     -0.667450    3.241580    0.371850
  C     -1.466690    1.973460    0.049240
  C     -0.704660    0.648230    0.347280
  C      0.704620    0.648280   -0.347140
  C      1.466570    1.973600   -0.049260
  Si    -1.914530   -0.808950   -0.034510
  C     -3.688200   -0.297250    0.422990
  Si     1.914590   -0.808850    0.034550
  C      3.688170   -0.297290   -0.423480
  C     -1.912740   -1.225690   -1.885900
  C     -1.591380   -2.358150    1.017930
  C      1.913360   -1.225330    1.886010
  C      1.591090   -2.358130   -1.017660
  H     -2.406990    1.994150    0.609640
  H     -1.742960    2.000800   -1.016430
  H     -0.536940    0.618410    1.437520
  H      0.536820    0.618410   -1.437370
  H     -0.481820    3.289570    1.455260
  H     -1.258380    4.130430    0.115200
  H      2.406820    1.994350   -0.609740
  H      1.742930    2.001040    1.016400
  H      0.481550    3.289620   -1.455270
  H      1.258020    4.130550   -0.115210
  H     -2.637360   -2.020940   -2.098140
  H     -2.205780   -0.350520   -2.477950
  H     -0.936710   -1.559840   -2.249520
  H     -2.346390   -3.117840    0.780510
  H     -0.610300   -2.815860    0.878400
  H     -1.698060   -2.118700    2.083050
  H     -4.352990   -1.163070    0.315980
  H     -3.761000    0.042750    1.462980
  H     -4.078950    0.499660   -0.217980
  H      2.638000   -2.020580    2.098110
  H      2.206630   -0.350090    2.477860
  H      0.937430   -1.559360    2.249980
  H      2.346020   -3.117900   -0.780260
  H      0.609950   -2.815700   -0.877970
  H      1.697640   -2.118800   -2.082820
  H      4.352940   -1.163120   -0.316510
  H      3.760710    0.042530   -1.463550
  H      4.079130    0.499710    0.217250

 Total Charge           Charge          ....    0
 Multiplicity           Mult            ....    1
 Number of Electrons    NEL             ....  128
 Basis Dimension        Dim             ....  344

ORBITAL ENERGIES
----------------

  NO   OCC          E(Eh)            E(eV)
   0   2.0000     -68.757656     -1870.9909
   1   2.0000     -68.757654     -1870.9909
   2   2.0000     -11.221151      -305.3431
   3   2.0000     -11.221147      -305.3429
   4   2.0000     -11.217444      -305.2422
   5   2.0000     -11.216841      -305.2258
   6   2.0000     -11.215220      -305.1817
   7   2.0000     -11.214721      -305.1681
   8   2.0000     -11.203096      -304.8517
   9   2.0000     -11.203094      -304.8517
  10   2.0000     -11.202019      -304.8224
  11   2.0000     -11.202015      -304.8223
  12   2.0000     -11.200632      -304.7847
  13   2.0000     -11.200632      -304.7847
  14   2.0000      -6.105296      -166.1335
  15   2.0000      -6.105288      -166.1333
  16   2.0000      -4.211442      -114.5992
  17   2.0000      -4.211440      -114.5991
  18   2.0000      -4.211342      -114.5965
  19   2.0000      -4.211341      -114.5964
  20   2.0000      -4.211061      -114.5888
  21   2.0000      -4.211060      -114.5888
  22   2.0000      -1.102699       -30.0060
  23   2.0000      -0.998864       -27.1805
  24   2.0000      -0.995998       -27.1025
  25   2.0000      -0.954504       -25.9734
  26   2.0000      -0.953959       -25.9586
  27   2.0000      -0.920865       -25.0580
  28   2.0000      -0.917932       -24.9782
  29   2.0000      -0.916227       -24.9318
  30   2.0000      -0.911918       -24.8145
  31   2.0000      -0.820087       -22.3157
  32   2.0000      -0.818772       -22.2799
  33   2.0000      -0.745096       -20.2751
  34   2.0000      -0.652686       -17.7605
  35   2.0000      -0.628362       -17.0986
  36   2.0000      -0.605842       -16.4858
  37   2.0000      -0.597627       -16.2623
  38   2.0000      -0.587906       -15.9977
  39   2.0000      -0.572251       -15.5718
  40   2.0000      -0.568634       -15.4733
  41   2.0000      -0.561788       -15.2870
  42   2.0000      -0.556667       -15.1477
  43   2.0000      -0.554711       -15.0945
  44   2.0000      -0.552372       -15.0308
  45   2.0000      -0.545046       -14.8315
  46   2.0000      -0.534987       -14.5577
  47   2.0000      -0.529280       -14.4024
  48   2.0000      -0.529183       -14.3998
  49   2.0000      -0.522541       -14.2191
  50   2.0000      -0.522340       -14.2136
  51   2.0000      -0.517894       -14.0926
  52   2.0000      -0.508433       -13.8352
  53   2.0000      -0.487320       -13.2606
  54   2.0000      -0.482468       -13.1286
  55   2.0000      -0.474700       -12.9172
  56   2.0000      -0.460875       -12.5411
  57   2.0000      -0.439883       -11.9698
  58   2.0000      -0.421410       -11.4671
  59   2.0000      -0.419033       -11.4025
  60   2.0000      -0.416446       -11.3321
  61   2.0000      -0.412715       -11.2305
  62   2.0000      -0.387813       -10.5529
  63   2.0000      -0.365078        -9.9343
  64   0.0000       0.158757         4.3200
  65   0.0000       0.177369         4.8265
  66   0.0000       0.184674         5.0252
  67   0.0000       0.191875         5.2212
  68   0.0000       0.204097         5.5538

MULLIKEN ATOMIC CHARGES
-----------------------
   0 C :   -0.001983
   1 C :   -0.001965
   2 C :   -0.029813
   3 C :   -0.335184
   4 C :   -0.335188
   5 C :   -0.029802
   6 Si:    0.740551
   7 C :   -0.297230
   8 Si:    0.740584
   9 C :   -0.297231
  10 C :   -0.301345
  11 C :   -0.306300
  12 C :   -0.301347
  13 C :   -0.306323
  14 H :    0.035043
  15 H :    0.023505
  16 H :    0.027627
  17 H :    0.027632
  18 H :    0.017958
  19 H :    0.019042
  20 H :    0.035042
  21 H :    0.023506
  22 H :    0.017957
  23 H :    0.019042
  24 H :    0.044106
  25 H :    0.043741
  26 H :    0.045376
  27 H :    0.044895
  28 H :    0.046982
  29 H :    0.046985
  30 H :    0.043630
  31 H :    0.045697
  32 H :    0.046692
  33 H :    0.044106
  34 H :    0.043745
  35 H :    0.045375
  36 H :    0.044893
  37 H :    0.046995
  38 H :    0.046993
  39 H :    0.043629
  40 H :    0.045692
  41 H :    0.046690
Sum of atomic charges:   -0.0000000

LOEWDIN ATOMIC CHARGES
----------------------
   0 C :   -0.032774
   1 C :   -0.032773
   2 C :   -0.035068
   3 C :   -0.155638
   4 C :   -0.155642
   5 C :   -0.035068
   6 Si:    0.528915
   7 C :   -0.209756
   8 Si:    0.528919
   9 C :   -0.209756
  10 C :   -0.213256
  11 C :   -0.212703
  12 C :   -0.213254
  13 C :   -0.212703
  14 H :    0.021402
  15 H :    0.015176
  16 H :    0.017029
  17 H :    0.017033
  18 H :    0.014980
  19 H :    0.017997
  20 H :    0.021400
  21 H :    0.015176
  22 H :    0.014978
  23 H :    0.017996
  24 H :    0.029378
  25 H :    0.028191
  26 H :    0.026089
  27 H :    0.030374
  28 H :    0.022014
  29 H :    0.028508
  30 H :    0.027799
  31 H :    0.026216
  32 H :    0.025128
  33 H :    0.029376
  34 H :    0.028196
  35 H :    0.026084
  36 H :    0.030371
  37 H :    0.022018
  38 H :    0.028510
  39 H :    0.027798
  40 H :    0.026215
  41 H :    0.025127

  Mayer bond orders larger than 0.1
B(  0-C ,  1-C ) :   1.0496 B(  0-C ,  5-C ) :   1.0645 B(  0-C , 22-H ) :   0.9607
B(  0-C , 23-H ) :   0.9681 B(  1-C ,  2-C ) :   1.0645 B(  1-C , 18-H ) :   0.9607
B(  1-C , 19-H ) :   0.9681 B(  2-C ,  3-C ) :   1.0353 B(  2-C , 14-H ) :   0.9647
B(  2-C , 15-H ) :   0.9569 B(  3-C ,  4-C ) :   1.0056 B(  3-C ,  6-Si) :   0.9336
B(  3-C , 16-H ) :   0.9356 B(  4-C ,  5-C ) :   1.0353 B(  4-C ,  8-Si) :   0.9336
B(  4-C , 17-H ) :   0.9356 B(  5-C , 20-H ) :   0.9647 B(  5-C , 21-H ) :   0.9569
B(  6-Si,  7-C ) :   1.0344 B(  6-Si, 10-C ) :   1.0090 B(  6-Si, 11-C ) :   1.0129
B(  7-C , 30-H ) :   0.9680 B(  7-C , 31-H ) :   0.9662 B(  7-C , 32-H ) :   0.9694
B(  8-Si,  9-C ) :   1.0344 B(  8-Si, 12-C ) :   1.0090 B(  8-Si, 13-C ) :   1.0128
B(  9-C , 39-H ) :   0.9680 B(  9-C , 40-H ) :   0.9662 B(  9-C , 41-H ) :   0.9694
B( 10-C , 24-H ) :   0.9693 B( 10-C , 25-H ) :   0.9681 B( 10-C , 26-H ) :   0.9721
B( 11-C , 27-H ) :   0.9666 B( 11-C , 28-H ) :   0.9772 B( 11-C , 29-H ) :   0.9659
B( 12-C , 33-H ) :   0.9693 B( 12-C , 34-H ) :   0.9682 B( 12-C , 35-H ) :   0.9721
B( 13-C , 36-H ) :   0.9666 B( 13-C , 37-H ) :   0.9772 B( 13-C , 38-H ) :   0.9659

E(0)                                       ...  -1048.669788591
E(0)                                       ...  -1048.669788591
E(CORR)(strong-pairs)                      ...     -2.122849566
E(CORR)(weak-pairs)                        ...     -0.002253528
E(CORR)(corrected)                         ...     -2.125103094
E(TOT)                                     ...  -1050.794891686
E(CCSD(T))                                 ...  -1050.861117784
FINAL SINGLE POINT ENERGY     -1050.861117784032

DIPOLE MOMENT
-------------
                                X             Y             Z
Electronic contribution:      0.00003       1.14177       0.00062
Nuclear contribution   :     -0.00004      -1.09627      -0.00061
                        -----------------------------------------
Total Dipole Moment    :     -0.00001       0.04550       0.00001
                        -----------------------------------------
Magnitude (a.u.)       :      0.04550
Magnitude (Debye)      :      0.11564

Rotational constants in cm-1:     0.019183     0.015309     0.010405
Rotational constants in MHz :   575.079555   458.962194   311.923586

                             ****ORCA TERMINATED NORMALLY****
TOTAL RUN TIME: 0 days 0 hours 11 minutes 4 seconds 858 msec
