                         Program Version 4.1.x  -  STABLE  -
|  1> ! RHF DLPNO-CCSD(T) cc-pVDZ RIJK cc-pVTZ/JK cc-pVDZ/C
|  2> ! KDIIS SOSCF TightSCF TightPNO
|  3>
|  4> %pal nprocs 4 end
|  5>
|  6> %maxcore 8000
|  7>
|  8> %scf maxiter 300
|  9>      shift shift 0.2 erroff 0.1 end
| 10> end
| 11>
| 12> * xyzfile 0 1 but_1_ene_3_one_cis.xyz
| 13>
| 14>
| 15>                          ****END OF INPUT****

CARTESIAN COORDINATES (ANGSTROEM)
---------------------------------
  C     -0.597120   -1.934020    0.000000
  C      0.345270   -0.983730    0.000000
  C      0.000000    0.472990    0.000000
  O     -1.159860    0.861540    0.000000
  C      1.164920    1.442290    0.000000
  H     -0.342960   -2.989440    0.000000
  H     -1.648680   -1.660230    0.000000
  H      1.401630   -1.246030    0.000000
  H      0.796760    2.468860    0.000000
  H      1.796880    1.274700    0.881010
  H      1.796880    1.274700   -0.881010

 Total Charge           Charge          ....    0
 Multiplicity           Mult            ....    1
 Number of Electrons    NEL             ....   38
 Basis Dimension        Dim             ....  100

ORBITAL ENERGIES
----------------

  NO   OCC          E(Eh)            E(eV)
   0   2.0000     -20.543370      -559.0135
   1   2.0000     -11.336498      -308.4818
   2   2.0000     -11.262736      -306.4746
   3   2.0000     -11.248348      -306.0831
   4   2.0000     -11.241772      -305.9042
   5   2.0000      -1.377078       -37.4722
   6   2.0000      -1.071259       -29.1504
   7   2.0000      -1.005258       -27.3545
   8   2.0000      -0.848723       -23.0949
   9   2.0000      -0.725326       -19.7371
  10   2.0000      -0.671292       -18.2668
  11   2.0000      -0.637617       -17.3504
  12   2.0000      -0.597611       -16.2618
  13   2.0000      -0.590822       -16.0771
  14   2.0000      -0.552745       -15.0409
  15   2.0000      -0.532663       -14.4945
  16   2.0000      -0.500012       -13.6060
  17   2.0000      -0.412943       -11.2367
  18   2.0000      -0.383952       -10.4479
  19   0.0000       0.094719         2.5774
  20   0.0000       0.182038         4.9535
  21   0.0000       0.209678         5.7056
  22   0.0000       0.215587         5.8664
  23   0.0000       0.239102         6.5063

MULLIKEN ATOMIC CHARGES
-----------------------
   0 C :    0.062257
   1 C :   -0.211162
   2 C :    0.183152
   3 O :   -0.352479
   4 C :   -0.028374
   5 H :    0.063056
   6 H :    0.079164
   7 H :    0.028124
   8 H :    0.062413
   9 H :    0.056924
  10 H :    0.056924
Sum of atomic charges:    0.0000000

LOEWDIN ATOMIC CHARGES
----------------------
   0 C :    0.043855
   1 C :   -0.090740
   2 C :    0.007052
   3 O :   -0.109433
   4 C :   -0.058771
   5 H :    0.031491
   6 H :    0.038595
   7 H :    0.024583
   8 H :    0.037322
   9 H :    0.038024
  10 H :    0.038024

  Mayer bond orders larger than 0.1
B(  0-C ,  1-C ) :   1.9665 B(  0-C ,  5-H ) :   0.9694 B(  0-C ,  6-H ) :   0.9542
B(  1-C ,  2-C ) :   0.9794 B(  1-C ,  7-H ) :   0.9748 B(  2-C ,  3-O ) :   2.0762
B(  2-C ,  4-C ) :   1.0336 B(  4-C ,  8-H ) :   0.9753 B(  4-C ,  9-H ) :   0.9654
B(  4-C , 10-H ) :   0.9654

E(0)                                       ...   -229.824183114
E(0)                                       ...   -229.824183114
E(CORR)(strong-pairs)                      ...     -0.762482374
E(CORR)(weak-pairs)                        ...     -0.000182547
E(CORR)(corrected)                         ...     -0.762664920
E(TOT)                                     ...   -230.586848034
E(CCSD(T))                                 ...   -230.612178985
FINAL SINGLE POINT ENERGY      -230.612178985166

DIPOLE MOMENT
-------------
                                X             Y             Z
Electronic contribution:     -2.82218       0.28245      -0.00000
Nuclear contribution   :      3.85106      -0.87959       0.00000
                        -----------------------------------------
Total Dipole Moment    :      1.02888      -0.59715      -0.00000
                        -----------------------------------------
Magnitude (a.u.)       :      1.18961
Magnitude (Debye)      :      3.02376

Rotational constants in cm-1:     0.339649     0.132032     0.096782
Rotational constants in MHz : 10182.410840  3958.224263  2901.455294

                             ****ORCA TERMINATED NORMALLY****
TOTAL RUN TIME: 0 days 0 hours 1 minutes 25 seconds 295 msec
