                         Program Version 4.1.x  -  STABLE  -
|  1> ! RHF DLPNO-CCSD(T) cc-pVDZ RIJK cc-pVTZ/JK cc-pVDZ/C
|  2> ! KDIIS SOSCF TightSCF TightPNO
|  3>
|  4> %pal nprocs 4 end
|  5>
|  6> %maxcore 8000
|  7>
|  8> %scf maxiter 300
|  9>      shift shift 0.2 erroff 0.1 end
| 10> end
| 11>
| 12> * xyzfile 0 1 but_1_ene_3_one_t.xyz
| 13>
| 14>
| 15>                          ****END OF INPUT****

CARTESIAN COORDINATES (ANGSTROEM)
---------------------------------
  C      1.945110    0.176540    0.000040
  C      0.878620   -0.634170   -0.000000
  C     -0.542480   -0.187460   -0.000620
  O     -1.433600   -1.027810    0.000180
  C     -0.865080    1.296020    0.000130
  H      2.955150   -0.222500    0.000350
  H      1.852740    1.258900   -0.000250
  H      0.997900   -1.715220    0.000350
  H     -1.948550    1.420850    0.000700
  H     -0.442310    1.787190    0.883680
  H     -0.443200    1.787720   -0.883540

 Total Charge           Charge          ....    0
 Multiplicity           Mult            ....    1
 Number of Electrons    NEL             ....   38
 Basis Dimension        Dim             ....  100

ORBITAL ENERGIES
----------------

  NO   OCC          E(Eh)            E(eV)
   0   2.0000     -20.548037      -559.1405
   1   2.0000     -11.337464      -308.5081
   2   2.0000     -11.268283      -306.6256
   3   2.0000     -11.254349      -306.2464
   4   2.0000     -11.242819      -305.9327
   5   2.0000      -1.380129       -37.5552
   6   2.0000      -1.081620       -29.4324
   7   2.0000      -0.996736       -27.1226
   8   2.0000      -0.860816       -23.4240
   9   2.0000      -0.731134       -19.8952
  10   2.0000      -0.667713       -18.1694
  11   2.0000      -0.648811       -17.6550
  12   2.0000      -0.600068       -16.3287
  13   2.0000      -0.588721       -16.0199
  14   2.0000      -0.559468       -15.2239
  15   2.0000      -0.534399       -14.5417
  16   2.0000      -0.501026       -13.6336
  17   2.0000      -0.416694       -11.3388
  18   2.0000      -0.390398       -10.6233
  19   0.0000       0.092155         2.5077
  20   0.0000       0.180726         4.9178
  21   0.0000       0.206020         5.6061
  22   0.0000       0.229872         6.2551
  23   0.0000       0.235319         6.4034

MULLIKEN ATOMIC CHARGES
-----------------------
   0 C :    0.004391
   1 C :   -0.133753
   2 C :    0.146439
   3 O :   -0.343938
   4 C :   -0.032905
   5 H :    0.069382
   6 H :    0.057722
   7 H :    0.049342
   8 H :    0.066324
   9 H :    0.058536
  10 H :    0.058461
Sum of atomic charges:   -0.0000000

LOEWDIN ATOMIC CHARGES
----------------------
   0 C :    0.000894
   1 C :   -0.056686
   2 C :    0.004455
   3 O :   -0.098536
   4 C :   -0.060140
   5 H :    0.034161
   6 H :    0.026822
   7 H :    0.036498
   8 H :    0.039276
   9 H :    0.036644
  10 H :    0.036613

  Mayer bond orders larger than 0.1
B(  0-C ,  1-C ) :   1.9486 B(  0-C ,  5-H ) :   0.9638 B(  0-C ,  6-H ) :   0.9629
B(  1-C ,  2-C ) :   1.0406 B(  1-C ,  7-H ) :   0.9691 B(  2-C ,  3-O ) :   2.0497
B(  2-C ,  4-C ) :   1.0330 B(  4-C ,  8-H ) :   0.9728 B(  4-C ,  9-H ) :   0.9631
B(  4-C , 10-H ) :   0.9631

E(0)                                       ...   -229.823549438
E(0)                                       ...   -229.823549438
E(CORR)(strong-pairs)                      ...     -0.762759752
E(CORR)(weak-pairs)                        ...     -0.000185055
E(CORR)(corrected)                         ...     -0.762944808
E(TOT)                                     ...   -230.586494246
E(CCSD(T))                                 ...   -230.611810842
FINAL SINGLE POINT ENERGY      -230.611810842100

DIPOLE MOMENT
-------------
                                X             Y             Z
Electronic contribution:     -1.94812      -3.45117      -0.00163
Nuclear contribution   :      3.00282       4.37901       0.00131
                        -----------------------------------------
Total Dipole Moment    :      1.05470       0.92785      -0.00032
                        -----------------------------------------
Magnitude (a.u.)       :      1.40474
Magnitude (Debye)      :      3.57056

Rotational constants in cm-1:     0.296648     0.141259     0.097433
Rotational constants in MHz :  8893.289544  4234.848614  2920.977280

                             ****ORCA TERMINATED NORMALLY****
TOTAL RUN TIME: 0 days 0 hours 1 minutes 25 seconds 63 msec
