                         Program Version 4.1.x  -  STABLE  -
|  1> ! RHF DLPNO-CCSD(T) cc-pVDZ RIJK cc-pVTZ/JK cc-pVDZ/C
|  2> ! KDIIS SOSCF TightSCF TightPNO
|  3>
|  4> %pal nprocs 4 end
|  5>
|  6> %maxcore 8000
|  7>
|  8> %scf maxiter 300
|  9>      shift shift 0.2 erroff 0.1 end
| 10> end
| 11>
| 12> * xyzfile 0 1 Butane_g.xyz
| 13>
| 14>
| 15>                          ****END OF INPUT****

CARTESIAN COORDINATES (ANGSTROEM)
---------------------------------
  C      1.590960   -0.554210    0.124330
  C      0.703480    0.619180   -0.311340
  C     -0.703480    0.619180    0.311330
  C     -1.590950   -0.554220   -0.124320
  H      0.611020    0.620190   -1.406800
  H      1.204240    1.560180   -0.047690
  H     -0.611040    0.620230    1.406800
  H     -1.204240    1.560180    0.047680
  H      2.592510   -0.474100   -0.312400
  H      1.705360   -0.577020    1.215140
  H      1.175380   -1.519020   -0.185490
  H     -2.592510   -0.474100    0.312410
  H     -1.705370   -0.577030   -1.215130
  H     -1.175350   -1.519030    0.185490

 Total Charge           Charge          ....    0
 Multiplicity           Mult            ....    1
 Number of Electrons    NEL             ....   34
 Basis Dimension        Dim             ....  106

ORBITAL ENERGIES
----------------

  NO   OCC          E(Eh)            E(eV)
   0   2.0000     -11.222405      -305.3772
   1   2.0000     -11.221833      -305.3616
   2   2.0000     -11.217600      -305.2464
   3   2.0000     -11.217598      -305.2464
   4   2.0000      -1.066362       -29.0172
   5   2.0000      -0.974112       -26.5069
   6   2.0000      -0.871570       -23.7166
   7   2.0000      -0.774994       -21.0886
   8   2.0000      -0.619325       -16.8527
   9   2.0000      -0.615554       -16.7501
  10   2.0000      -0.570891       -15.5347
  11   2.0000      -0.531323       -14.4580
  12   2.0000      -0.528327       -14.3765
  13   2.0000      -0.501500       -13.6465
  14   2.0000      -0.460610       -12.5338
  15   2.0000      -0.456548       -12.4233
  16   2.0000      -0.455087       -12.3836
  17   0.0000       0.180420         4.9095
  18   0.0000       0.218288         5.9399
  19   0.0000       0.220626         6.0035
  20   0.0000       0.227499         6.1906
  21   0.0000       0.259710         7.0671

MULLIKEN ATOMIC CHARGES
-----------------------
   0 C :   -0.049128
   1 C :   -0.086731
   2 C :   -0.086736
   3 C :   -0.049132
   4 H :    0.023011
   5 H :    0.023796
   6 H :    0.023011
   7 H :    0.023794
   8 H :    0.030396
   9 H :    0.027850
  10 H :    0.030809
  11 H :    0.030398
  12 H :    0.027849
  13 H :    0.030812
Sum of atomic charges:    0.0000000

LOEWDIN ATOMIC CHARGES
----------------------
   0 C :   -0.055310
   1 C :   -0.041082
   2 C :   -0.041085
   3 C :   -0.055312
   4 H :    0.016783
   5 H :    0.019553
   6 H :    0.016783
   7 H :    0.019553
   8 H :    0.022146
   9 H :    0.019409
  10 H :    0.018502
  11 H :    0.022147
  12 H :    0.019409
  13 H :    0.018503

  Mayer bond orders larger than 0.1
B(  0-C ,  1-C ) :   1.0541 B(  0-C ,  8-H ) :   0.9847 B(  0-C ,  9-H ) :   0.9812
B(  0-C , 10-H ) :   0.9817 B(  1-C ,  2-C ) :   1.0504 B(  1-C ,  4-H ) :   0.9681
B(  1-C ,  5-H ) :   0.9726 B(  2-C ,  3-C ) :   1.0541 B(  2-C ,  6-H ) :   0.9681
B(  2-C ,  7-H ) :   0.9726 B(  3-C , 11-H ) :   0.9847 B(  3-C , 12-H ) :   0.9812
B(  3-C , 13-H ) :   0.9817

E(0)                                       ...   -157.308204017
E(0)                                       ...   -157.308204017
E(CORR)(strong-pairs)                      ...     -0.652010043
E(CORR)(weak-pairs)                        ...     -0.000161773
E(CORR)(corrected)                         ...     -0.652171815
E(TOT)                                     ...   -157.960375833
E(CCSD(T))                                 ...   -157.978049462
FINAL SINGLE POINT ENERGY      -157.978049462477

DIPOLE MOMENT
-------------
                                X             Y             Z
Electronic contribution:      0.00002       0.88171      -0.00001
Nuclear contribution   :     -0.00002      -0.85639       0.00001
                        -----------------------------------------
Total Dipole Moment    :      0.00000       0.02531      -0.00001
                        -----------------------------------------
Magnitude (a.u.)       :      0.02531
Magnitude (Debye)      :      0.06434

Rotational constants in cm-1:     0.443938     0.155367     0.133154
Rotational constants in MHz : 13308.920913  4657.777216  3991.854056

                             ****ORCA TERMINATED NORMALLY****
TOTAL RUN TIME: 0 days 0 hours 1 minutes 17 seconds 503 msec
