                         Program Version 4.1.x  -  STABLE  -
|  1> ! RHF DLPNO-CCSD(T) cc-pVDZ RIJK cc-pVTZ/JK cc-pVDZ/C
|  2> ! KDIIS SOSCF TightSCF TightPNO
|  3>
|  4> %pal nprocs 4 end
|  5>
|  6> %maxcore 8000
|  7>
|  8> %scf maxiter 300
|  9>      shift shift 0.2 erroff 0.1 end
| 10> end
| 11>
| 12> * xyzfile 0 1 butane_anti.xyz
| 13>
| 14>
| 15>                          ****END OF INPUT****

CARTESIAN COORDINATES (ANGSTROEM)
---------------------------------
  C      1.951060   -0.123460    0.000000
  C      0.560570    0.525400    0.000000
  C     -0.560580   -0.525400    0.000000
  C     -1.951060    0.123460    0.000000
  H      2.753540    0.650320    0.000000
  H      2.096620   -0.762330    0.901420
  H      2.096620   -0.762330   -0.901420
  H      0.459680    1.179140    0.899230
  H      0.459680    1.179140   -0.899220
  H     -0.459680   -1.179130   -0.899230
  H     -0.459680   -1.179140    0.899220
  H     -2.753540   -0.650320    0.000000
  H     -2.096620    0.762310    0.901430
  H     -2.096630    0.762330   -0.901420

 Total Charge           Charge          ....    0
 Multiplicity           Mult            ....    1
 Number of Electrons    NEL             ....   34
 Basis Dimension        Dim             ....  106

ORBITAL ENERGIES
----------------

  NO   OCC          E(Eh)            E(eV)
   0   2.0000     -11.227549      -305.5171
   1   2.0000     -11.226976      -305.5015
   2   2.0000     -11.224315      -305.4291
   3   2.0000     -11.224306      -305.4289
   4   2.0000      -1.065071       -28.9821
   5   2.0000      -0.973623       -26.4936
   6   2.0000      -0.851795       -23.1785
   7   2.0000      -0.779655       -21.2155
   8   2.0000      -0.632161       -17.2020
   9   2.0000      -0.577821       -15.7233
  10   2.0000      -0.568209       -15.4618
  11   2.0000      -0.560712       -15.2578
  12   2.0000      -0.507916       -13.8211
  13   2.0000      -0.488930       -13.3045
  14   2.0000      -0.466385       -12.6910
  15   2.0000      -0.459097       -12.4927
  16   2.0000      -0.451046       -12.2736
  17   0.0000       0.182051         4.9539
  18   0.0000       0.201719         5.4890
  19   0.0000       0.218463         5.9447
  20   0.0000       0.223529         6.0825
  21   0.0000       0.263973         7.1831

MULLIKEN ATOMIC CHARGES
-----------------------
   0 C :   -0.053990
   1 C :   -0.105314
   2 C :   -0.105309
   3 C :   -0.053988
   4 H :    0.033835
   5 H :    0.032818
   6 H :    0.032818
   7 H :    0.029915
   8 H :    0.029915
   9 H :    0.029914
  10 H :    0.029915
  11 H :    0.033834
  12 H :    0.032818
  13 H :    0.032819
Sum of atomic charges:    0.0000000

LOEWDIN ATOMIC CHARGES
----------------------
   0 C :   -0.059546
   1 C :   -0.045579
   2 C :   -0.045580
   3 C :   -0.059545
   4 H :    0.022949
   5 H :    0.021357
   6 H :    0.021357
   7 H :    0.019731
   8 H :    0.019730
   9 H :    0.019731
  10 H :    0.019731
  11 H :    0.022949
  12 H :    0.021357
  13 H :    0.021357

  Mayer bond orders larger than 0.1
B(  0-C ,  1-C ) :   1.0649 B(  0-C ,  4-H ) :   0.9838 B(  0-C ,  5-H ) :   0.9802
B(  0-C ,  6-H ) :   0.9802 B(  1-C ,  2-C ) :   1.0318 B(  1-C ,  7-H ) :   0.9680
B(  1-C ,  8-H ) :   0.9680 B(  2-C ,  3-C ) :   1.0649 B(  2-C ,  9-H ) :   0.9680
B(  2-C , 10-H ) :   0.9680 B(  3-C , 11-H ) :   0.9838 B(  3-C , 12-H ) :   0.9802
B(  3-C , 13-H ) :   0.9802

E(0)                                       ...   -157.306713689
E(0)                                       ...   -157.306713689
E(CORR)(strong-pairs)                      ...     -0.654621298
E(CORR)(weak-pairs)                        ...     -0.000158284
E(CORR)(corrected)                         ...     -0.654779582
E(TOT)                                     ...   -157.961493271
E(CCSD(T))                                 ...   -157.979460676
FINAL SINGLE POINT ENERGY      -157.979460675785

DIPOLE MOMENT
-------------
                                X             Y             Z
Electronic contribution:     -0.00002       0.00001      -0.00001
Nuclear contribution   :      0.00001      -0.00001       0.00001
                        -----------------------------------------
Total Dipole Moment    :     -0.00000      -0.00000      -0.00000
                        -----------------------------------------
Magnitude (a.u.)       :      0.00000
Magnitude (Debye)      :      0.00001

Rotational constants in cm-1:     0.754863     0.120936     0.113403
Rotational constants in MHz : 22630.214739  3625.571710  3399.748659

                             ****ORCA TERMINATED NORMALLY****
TOTAL RUN TIME: 0 days 0 hours 1 minutes 19 seconds 345 msec
