                         Program Version 4.1.x  -  STABLE  -
|  1> ! RHF DLPNO-CCSD(T) cc-pVDZ RIJK cc-pVTZ/JK cc-pVDZ/C
|  2> ! KDIIS SOSCF TightSCF TightPNO
|  3>
|  4> %pal nprocs 4 end
|  5>
|  6> %maxcore 8000
|  7>
|  8> %scf maxiter 300
|  9>      shift shift 0.2 erroff 0.1 end
| 10> end
| 11>
| 12> * xyzfile 0 1 butanediamine_gGGG.xyz
| 13>
| 14>
| 15>                          ****END OF INPUT****

CARTESIAN COORDINATES (ANGSTROEM)
---------------------------------
  C      1.622900    0.167390   -0.380800
  C      0.670120    1.213050    0.222020
  C     -0.812080    1.176710   -0.204750
  C     -1.687750    0.034220    0.328420
  N     -1.438220   -1.233740   -0.362930
  N      1.513810   -1.146030    0.281550
  H      2.649080    0.567100   -0.334670
  H      1.384050    0.022710   -1.440940
  H      2.115320   -1.828610   -0.172960
  H      1.820280   -1.081570    1.249940
  H     -2.736100    0.306260    0.154210
  H     -1.558540   -0.026750    1.426190
  H     -2.120180   -1.933490   -0.083350
  H     -0.507040   -1.574910   -0.116270
  H      0.739310    1.165850    1.320010
  H      1.064740    2.199390   -0.055760
  H     -1.262630    2.119440    0.134990
  H     -0.876620    1.174770   -1.301160

 Total Charge           Charge          ....    0
 Multiplicity           Mult            ....    1
 Number of Electrons    NEL             ....   50
 Basis Dimension        Dim             ....  144

ORBITAL ENERGIES
----------------

  NO   OCC          E(Eh)            E(eV)
   0   2.0000     -15.549183      -423.1148
   1   2.0000     -15.505916      -421.9374
   2   2.0000     -11.253884      -306.2338
   3   2.0000     -11.234556      -305.7078
   4   2.0000     -11.223199      -305.3988
   5   2.0000     -11.213240      -305.1278
   6   2.0000      -1.179218       -32.0882
   7   2.0000      -1.143218       -31.1085
   8   2.0000      -1.032926       -28.1073
   9   2.0000      -0.932782       -25.3823
  10   2.0000      -0.834625       -22.7113
  11   2.0000      -0.765898       -20.8411
  12   2.0000      -0.658954       -17.9310
  13   2.0000      -0.650486       -17.7006
  14   2.0000      -0.616660       -16.7802
  15   2.0000      -0.605062       -16.4646
  16   2.0000      -0.576907       -15.6984
  17   2.0000      -0.547026       -14.8853
  18   2.0000      -0.529993       -14.4218
  19   2.0000      -0.511114       -13.9081
  20   2.0000      -0.463050       -12.6002
  21   2.0000      -0.460260       -12.5243
  22   2.0000      -0.448342       -12.2000
  23   2.0000      -0.392730       -10.6867
  24   2.0000      -0.356845        -9.7102
  25   0.0000       0.176739         4.8093
  26   0.0000       0.205740         5.5985
  27   0.0000       0.210832         5.7370
  28   0.0000       0.222808         6.0629
  29   0.0000       0.251479         6.8431

MULLIKEN ATOMIC CHARGES
-----------------------
   0 C :    0.077431
   1 C :   -0.057582
   2 C :   -0.045400
   3 C :    0.092145
   4 N :   -0.320737
   5 N :   -0.300066
   6 H :    0.017621
   7 H :    0.040545
   8 H :    0.100178
   9 H :    0.096282
  10 H :    0.020085
  11 H :   -0.003308
  12 H :    0.082878
  13 H :    0.112543
  14 H :    0.016071
  15 H :    0.024066
  16 H :    0.017318
  17 H :    0.029927
Sum of atomic charges:    0.0000000

LOEWDIN ATOMIC CHARGES
----------------------
   0 C :   -0.013225
   1 C :   -0.039946
   2 C :   -0.036996
   3 C :   -0.018335
   4 N :   -0.083431
   5 N :   -0.044694
   6 H :    0.005278
   7 H :    0.020256
   8 H :    0.039631
   9 H :    0.035656
  10 H :    0.014889
  11 H :   -0.005430
  12 H :    0.029537
  13 H :    0.018050
  14 H :    0.014362
  15 H :    0.023701
  16 H :    0.021198
  17 H :    0.019499

  Mayer bond orders larger than 0.1
B(  0-C ,  1-C ) :   1.0362 B(  0-C ,  5-N ) :   1.0089 B(  0-C ,  6-H ) :   0.9770
B(  0-C ,  7-H ) :   0.9686 B(  1-C ,  2-C ) :   1.0509 B(  1-C , 14-H ) :   0.9644
B(  1-C , 15-H ) :   0.9719 B(  2-C ,  3-C ) :   1.0462 B(  2-C , 16-H ) :   0.9697
B(  2-C , 17-H ) :   0.9607 B(  3-C ,  4-N ) :   1.0548 B(  3-C , 10-H ) :   0.9725
B(  3-C , 11-H ) :   0.9621 B(  4-N , 12-H ) :   0.9873 B(  4-N , 13-H ) :   0.9561
B(  5-N ,  8-H ) :   0.9836 B(  5-N ,  9-H ) :   0.9834

E(0)                                       ...   -267.360933058
E(0)                                       ...   -267.360933058
E(CORR)(strong-pairs)                      ...     -1.000354494
E(CORR)(weak-pairs)                        ...     -0.000328147
E(CORR)(corrected)                         ...     -1.000682641
E(TOT)                                     ...   -268.361615699
E(CCSD(T))                                 ...   -268.389463223
FINAL SINGLE POINT ENERGY      -268.389463223010

DIPOLE MOMENT
-------------
                                X             Y             Z
Electronic contribution:     -0.02498      -1.17716      -0.33700
Nuclear contribution   :      0.75858       1.16772       0.83063
                        -----------------------------------------
Total Dipole Moment    :      0.73359      -0.00945       0.49363
                        -----------------------------------------
Magnitude (a.u.)       :      0.88426
Magnitude (Debye)      :      2.24762

Rotational constants in cm-1:     0.147597     0.087611     0.061586
Rotational constants in MHz :  4424.847581  2626.502398  1846.296234

                             ****ORCA TERMINATED NORMALLY****
TOTAL RUN TIME: 0 days 0 hours 1 minutes 40 seconds 17 msec
