                         Program Version 4.1.x  -  STABLE  -
|  1> ! RHF DLPNO-CCSD(T) cc-pVDZ RIJK cc-pVTZ/JK cc-pVDZ/C
|  2> ! KDIIS SOSCF TightSCF TightPNO
|  3>
|  4> %pal nprocs 4 end
|  5>
|  6> %maxcore 8000
|  7>
|  8> %scf maxiter 300
|  9>      shift shift 0.2 erroff 0.1 end
| 10> end
| 11>
| 12> * xyzfile 0 1 butane_ecl.xyz
| 13>
| 14>
| 15>                          ****END OF INPUT****

CARTESIAN COORDINATES (ANGSTROEM)
---------------------------------
  C      1.455600   -0.650020   -0.000000
  C      0.771660    0.723340    0.000000
  C     -0.771650    0.723330    0.000000
  C     -1.455600   -0.650020    0.000000
  H      2.565050   -0.539150   -0.000080
  H      1.189010   -1.241250    0.905620
  H      1.188890   -1.241330   -0.905530
  H      1.137560    1.290920    0.889590
  H      1.137550    1.290900   -0.889610
  H     -1.137540    1.290910    0.889620
  H     -1.137560    1.290920   -0.889590
  H     -2.565050   -0.539140    0.000080
  H     -1.189020   -1.241250   -0.905620
  H     -1.188890   -1.241330    0.905530

 Total Charge           Charge          ....    0
 Multiplicity           Mult            ....    1
 Number of Electrons    NEL             ....   34
 Basis Dimension        Dim             ....  106

ORBITAL ENERGIES
----------------

  NO   OCC          E(Eh)            E(eV)
   0   2.0000     -11.226940      -305.5006
   1   2.0000     -11.226400      -305.4859
   2   2.0000     -11.224137      -305.4243
   3   2.0000     -11.224135      -305.4242
   4   2.0000      -1.062713       -28.9179
   5   2.0000      -0.968188       -26.3457
   6   2.0000      -0.871611       -23.7177
   7   2.0000      -0.759223       -20.6595
   8   2.0000      -0.628674       -17.1071
   9   2.0000      -0.607176       -16.5221
  10   2.0000      -0.557699       -15.1758
  11   2.0000      -0.535197       -14.5635
  12   2.0000      -0.516534       -14.0556
  13   2.0000      -0.508449       -13.8356
  14   2.0000      -0.458103       -12.4656
  15   2.0000      -0.457402       -12.4465
  16   2.0000      -0.437569       -11.9069
  17   0.0000       0.172984         4.7071
  18   0.0000       0.213317         5.8047
  19   0.0000       0.216971         5.9041
  20   0.0000       0.227123         6.1803
  21   0.0000       0.251124         6.8334

MULLIKEN ATOMIC CHARGES
-----------------------
   0 C :   -0.075142
   1 C :   -0.094353
   2 C :   -0.094371
   3 C :   -0.075135
   4 H :    0.035482
   5 H :    0.036064
   6 H :    0.036064
   7 H :    0.030945
   8 H :    0.030945
   9 H :    0.030945
  10 H :    0.030945
  11 H :    0.035483
  12 H :    0.036064
  13 H :    0.036064
Sum of atomic charges:    0.0000000

LOEWDIN ATOMIC CHARGES
----------------------
   0 C :   -0.062176
   1 C :   -0.048063
   2 C :   -0.048065
   3 C :   -0.062177
   4 H :    0.024481
   5 H :    0.020947
   6 H :    0.020948
   7 H :    0.021932
   8 H :    0.021931
   9 H :    0.021933
  10 H :    0.021932
  11 H :    0.024483
  12 H :    0.020947
  13 H :    0.020948

  Mayer bond orders larger than 0.1
B(  0-C ,  1-C ) :   1.0688 B(  0-C ,  4-H ) :   0.9826 B(  0-C ,  5-H ) :   0.9790
B(  0-C ,  6-H ) :   0.9790 B(  1-C ,  2-C ) :   1.0168 B(  1-C ,  7-H ) :   0.9749
B(  1-C ,  8-H ) :   0.9749 B(  2-C ,  3-C ) :   1.0688 B(  2-C ,  9-H ) :   0.9749
B(  2-C , 10-H ) :   0.9749 B(  3-C , 11-H ) :   0.9826 B(  3-C , 12-H ) :   0.9790
B(  3-C , 13-H ) :   0.9790

E(0)                                       ...   -157.296110667
E(0)                                       ...   -157.296110667
E(CORR)(strong-pairs)                      ...     -0.655691574
E(CORR)(weak-pairs)                        ...     -0.000167820
E(CORR)(corrected)                         ...     -0.655859394
E(TOT)                                     ...   -157.951970061
E(CCSD(T))                                 ...   -157.969972313
FINAL SINGLE POINT ENERGY      -157.969972312780

DIPOLE MOMENT
-------------
                                X             Y             Z
Electronic contribution:      0.00002       0.98867      -0.00001
Nuclear contribution   :     -0.00002      -0.96653       0.00001
                        -----------------------------------------
Total Dipole Moment    :      0.00000       0.02214      -0.00000
                        -----------------------------------------
Magnitude (a.u.)       :      0.02214
Magnitude (Debye)      :      0.05628

Rotational constants in cm-1:     0.394603     0.175820     0.134211
Rotational constants in MHz : 11829.915093  5270.965123  4023.544562

                             ****ORCA TERMINATED NORMALLY****
TOTAL RUN TIME: 0 days 0 hours 1 minutes 20 seconds 148 msec
