                         Program Version 4.1.x  -  STABLE  -
|  1> ! RHF DLPNO-CCSD(T) cc-pVDZ RIJK cc-pVTZ/JK cc-pVDZ/C
|  2> ! KDIIS SOSCF TightSCF TightPNO
|  3>
|  4> %pal nprocs 4 end
|  5>
|  6> %maxcore 8000
|  7>
|  8> %scf maxiter 300
|  9>      shift shift 0.2 erroff 0.1 end
| 10> end
| 11>
| 12> * xyzfile 0 1 butanediamine_tTTTt.xyz
| 13>
| 14>
| 15>                          ****END OF INPUT****

CARTESIAN COORDINATES (ANGSTROEM)
---------------------------------
  C     -1.897850    0.538000   -0.000000
  C     -0.665370   -0.382610   -0.000010
  C      0.665380    0.382620   -0.000000
  C      1.897860   -0.537990    0.000010
  N      3.205180    0.124910   -0.000000
  N     -3.205190   -0.124930   -0.000010
  H     -1.860530    1.196120   -0.877520
  H     -1.860550    1.196080    0.877540
  H     -3.313500   -0.718900    0.818490
  H     -3.313390   -0.719100   -0.818370
  H      1.860520   -1.196110   -0.877500
  H      1.860520   -1.196110    0.877540
  H      3.313460    0.718990   -0.818420
  H      3.313470    0.718990    0.818420
  H     -0.711720   -1.041160    0.879980
  H     -0.711730   -1.041130   -0.880030
  H      0.711720    1.041170   -0.880010
  H      0.711710    1.041170    0.880000

 Total Charge           Charge          ....    0
 Multiplicity           Mult            ....    1
 Number of Electrons    NEL             ....   50
 Basis Dimension        Dim             ....  144

ORBITAL ENERGIES
----------------

  NO   OCC          E(Eh)            E(eV)
   0   2.0000     -15.537498      -422.7968
   1   2.0000     -15.537497      -422.7968
   2   2.0000     -11.250632      -306.1453
   3   2.0000     -11.250632      -306.1453
   4   2.0000     -11.224861      -305.4440
   5   2.0000     -11.224275      -305.4281
   6   2.0000      -1.172594       -31.9079
   7   2.0000      -1.167542       -31.7704
   8   2.0000      -1.044590       -28.4247
   9   2.0000      -0.931623       -25.3508
  10   2.0000      -0.833791       -22.6886
  11   2.0000      -0.797554       -21.7026
  12   2.0000      -0.677396       -18.4329
  13   2.0000      -0.661799       -18.0085
  14   2.0000      -0.602889       -16.4054
  15   2.0000      -0.602307       -16.3896
  16   2.0000      -0.583949       -15.8901
  17   2.0000      -0.536869       -14.6090
  18   2.0000      -0.534337       -14.5401
  19   2.0000      -0.529928       -14.4201
  20   2.0000      -0.483411       -13.1543
  21   2.0000      -0.476500       -12.9662
  22   2.0000      -0.465794       -12.6749
  23   2.0000      -0.395717       -10.7680
  24   2.0000      -0.367032        -9.9874
  25   0.0000       0.179860         4.8942
  26   0.0000       0.185754         5.0546
  27   0.0000       0.201799         5.4912
  28   0.0000       0.210128         5.7179
  29   0.0000       0.216497         5.8912

MULLIKEN ATOMIC CHARGES
-----------------------
   0 C :    0.113705
   1 C :   -0.092575
   2 C :   -0.092585
   3 C :    0.113712
   4 N :   -0.301397
   5 N :   -0.301405
   6 H :    0.030522
   7 H :    0.030519
   8 H :    0.091086
   9 H :    0.091084
  10 H :    0.030518
  11 H :    0.030520
  12 H :    0.091084
  13 H :    0.091084
  14 H :    0.018531
  15 H :    0.018533
  16 H :    0.018533
  17 H :    0.018532
Sum of atomic charges:   -0.0000000

LOEWDIN ATOMIC CHARGES
----------------------
   0 C :   -0.017949
   1 C :   -0.050941
   2 C :   -0.050943
   3 C :   -0.017962
   4 N :   -0.060256
   5 N :   -0.060266
   6 H :    0.017107
   7 H :    0.017106
   8 H :    0.033986
   9 H :    0.033981
  10 H :    0.017107
  11 H :    0.017109
  12 H :    0.033985
  13 H :    0.033986
  14 H :    0.013487
  15 H :    0.013488
  16 H :    0.013489
  17 H :    0.013487

  Mayer bond orders larger than 0.1
B(  0-C ,  1-C ) :   1.0453 B(  0-C ,  5-N ) :   1.0473 B(  0-C ,  6-H ) :   0.9696
B(  0-C ,  7-H ) :   0.9696 B(  1-C ,  2-C ) :   1.0321 B(  1-C , 14-H ) :   0.9625
B(  1-C , 15-H ) :   0.9625 B(  2-C ,  3-C ) :   1.0453 B(  2-C , 16-H ) :   0.9625
B(  2-C , 17-H ) :   0.9625 B(  3-C ,  4-N ) :   1.0473 B(  3-C , 10-H ) :   0.9696
B(  3-C , 11-H ) :   0.9696 B(  4-N , 12-H ) :   0.9900 B(  4-N , 13-H ) :   0.9900
B(  5-N ,  8-H ) :   0.9900 B(  5-N ,  9-H ) :   0.9900

E(0)                                       ...   -267.363698176
E(0)                                       ...   -267.363698176
E(CORR)(strong-pairs)                      ...     -0.997487883
E(CORR)(weak-pairs)                        ...     -0.000374877
E(CORR)(corrected)                         ...     -0.997862761
E(TOT)                                     ...   -268.361560937
E(CCSD(T))                                 ...   -268.389037729
FINAL SINGLE POINT ENERGY      -268.389037728937

DIPOLE MOMENT
-------------
                                X             Y             Z
Electronic contribution:      0.00008       0.00000      -0.00003
Nuclear contribution   :     -0.00003       0.00001       0.00011
                        -----------------------------------------
Total Dipole Moment    :      0.00005       0.00001       0.00008
                        -----------------------------------------
Magnitude (a.u.)       :      0.00010
Magnitude (Debye)      :      0.00025

Rotational constants in cm-1:     0.526341     0.037117     0.035994
Rotational constants in MHz : 15779.317261  1112.735560  1079.064728

                             ****ORCA TERMINATED NORMALLY****
TOTAL RUN TIME: 0 days 0 hours 1 minutes 43 seconds 151 msec
