                         Program Version 4.1.x  -  STABLE  -
|  1> ! RHF DLPNO-CCSD(T) cc-pVDZ RIJK cc-pVTZ/JK cc-pVDZ/C
|  2> ! KDIIS SOSCF TightSCF TightPNO
|  3>
|  4> %pal nprocs 4 end
|  5>
|  6> %maxcore 8000
|  7>
|  8> %scf maxiter 300
|  9>      shift shift 0.2 erroff 0.1 end
| 10> end
| 11>
| 12> * xyzfile 0 1 Butane_a.xyz
| 13>
| 14>
| 15>                          ****END OF INPUT****

CARTESIAN COORDINATES (ANGSTROEM)
---------------------------------
  C      1.963290    0.121060    0.000020
  C      0.568780   -0.514800    0.000000
  C     -0.568780    0.514840   -0.000010
  C     -1.963270   -0.121080    0.000000
  H      0.464160   -1.167300    0.878060
  H      0.464200   -1.167300   -0.878050
  H     -0.464230    1.167320    0.878060
  H     -0.464240    1.167290   -0.878100
  H      2.750810   -0.640220   -0.000100
  H      2.111260    0.752050   -0.884470
  H      2.111280    0.752030    0.884500
  H     -2.750820    0.640170   -0.000010
  H     -2.111270   -0.752100   -0.884450
  H     -2.111240   -0.752060    0.884500

 Total Charge           Charge          ....    0
 Multiplicity           Mult            ....    1
 Number of Electrons    NEL             ....   34
 Basis Dimension        Dim             ....  106

ORBITAL ENERGIES
----------------

  NO   OCC          E(Eh)            E(eV)
   0   2.0000     -11.222018      -305.3666
   1   2.0000     -11.221439      -305.3509
   2   2.0000     -11.218037      -305.2583
   3   2.0000     -11.218030      -305.2581
   4   2.0000      -1.066974       -29.0338
   5   2.0000      -0.978529       -26.6271
   6   2.0000      -0.860039       -23.4029
   7   2.0000      -0.785978       -21.3875
   8   2.0000      -0.634084       -17.2543
   9   2.0000      -0.581269       -15.8171
  10   2.0000      -0.572005       -15.5650
  11   2.0000      -0.564478       -15.3602
  12   2.0000      -0.512505       -13.9460
  13   2.0000      -0.492981       -13.4147
  14   2.0000      -0.467185       -12.7128
  15   2.0000      -0.459431       -12.5018
  16   2.0000      -0.455066       -12.3830
  17   0.0000       0.183682         4.9982
  18   0.0000       0.203654         5.5417
  19   0.0000       0.222658         6.0588
  20   0.0000       0.226587         6.1658
  21   0.0000       0.266125         7.2416

MULLIKEN ATOMIC CHARGES
-----------------------
   0 C :   -0.034944
   1 C :   -0.099146
   2 C :   -0.099121
   3 C :   -0.034965
   4 H :    0.024060
   5 H :    0.024060
   6 H :    0.024064
   7 H :    0.024064
   8 H :    0.029926
   9 H :    0.028015
  10 H :    0.028025
  11 H :    0.029924
  12 H :    0.028019
  13 H :    0.028019
Sum of atomic charges:   -0.0000000

LOEWDIN ATOMIC CHARGES
----------------------
   0 C :   -0.053143
   1 C :   -0.041667
   2 C :   -0.041661
   3 C :   -0.053145
   4 H :    0.017083
   5 H :    0.017083
   6 H :    0.017084
   7 H :    0.017083
   8 H :    0.021645
   9 H :    0.019500
  10 H :    0.019498
  11 H :    0.021643
  12 H :    0.019498
  13 H :    0.019500

  Mayer bond orders larger than 0.1
B(  0-C ,  1-C ) :   1.0686 B(  0-C ,  8-H ) :   0.9836 B(  0-C ,  9-H ) :   0.9806
B(  0-C , 10-H ) :   0.9806 B(  1-C ,  2-C ) :   1.0345 B(  1-C ,  4-H ) :   0.9684
B(  1-C ,  5-H ) :   0.9684 B(  2-C ,  3-C ) :   1.0686 B(  2-C ,  6-H ) :   0.9684
B(  2-C ,  7-H ) :   0.9684 B(  3-C , 11-H ) :   0.9836 B(  3-C , 12-H ) :   0.9806
B(  3-C , 13-H ) :   0.9806

E(0)                                       ...   -157.309885224
E(0)                                       ...   -157.309885224
E(CORR)(strong-pairs)                      ...     -0.651482877
E(CORR)(weak-pairs)                        ...     -0.000157884
E(CORR)(corrected)                         ...     -0.651640762
E(TOT)                                     ...   -157.961525985
E(CCSD(T))                                 ...   -157.979142889
FINAL SINGLE POINT ENERGY      -157.979142889167

DIPOLE MOMENT
-------------
                                X             Y             Z
Electronic contribution:      0.00011       0.00013       0.00005
Nuclear contribution   :     -0.00011      -0.00013      -0.00007
                        -----------------------------------------
Total Dipole Moment    :      0.00000      -0.00000      -0.00002
                        -----------------------------------------
Magnitude (a.u.)       :      0.00002
Magnitude (Debye)      :      0.00004

Rotational constants in cm-1:     0.781209     0.119790     0.112550
Rotational constants in MHz : 23420.053843  3591.224769  3374.161779

                             ****ORCA TERMINATED NORMALLY****
TOTAL RUN TIME: 0 days 0 hours 0 minutes 59 seconds 62 msec
