                         Program Version 4.1.x  -  STABLE  -
|  1> ! RHF DLPNO-CCSD(T) cc-pVDZ RIJK cc-pVTZ/JK cc-pVDZ/C
|  2> ! KDIIS SOSCF TightSCF TightPNO
|  3>
|  4> %pal nprocs 4 end
|  5>
|  6> %maxcore 8000
|  7>
|  8> %scf maxiter 300
|  9>      shift shift 0.2 erroff 0.1 end
| 10> end
| 11>
| 12> * xyzfile 0 1 C_Et_glycoside_a.xyz
| 13>
| 14>
| 15>                          ****END OF INPUT****

CARTESIAN COORDINATES (ANGSTROEM)
---------------------------------
  C      1.111930   -0.865180   -0.506840
  O     -0.251500   -1.328340   -0.547880
  C     -1.150560   -0.739020    0.387150
  C     -1.216070    0.786470    0.185520
  C      0.188900    1.383130    0.193700
  C      1.102590    0.650740   -0.786390
  C     -2.503900   -1.417800    0.218430
  O     -3.058330   -1.058170   -1.043390
  O     -2.038760    1.435780    1.165010
  O      0.183960    2.759590   -0.185360
  O      2.430450    1.161230   -0.726190
  C      1.851100   -1.325920    0.766170
  C      3.359880   -1.526140    0.563490
  H     -0.815690   -0.948490    1.420680
  H     -1.698760    0.993930   -0.772670
  H      0.611470    1.292310    1.209420
  H      0.689990    0.797730   -1.795340
  H      1.574190   -1.363460   -1.365110
  H      1.396730   -2.280930    1.058820
  H      1.688410   -0.629180    1.597000
  H     -2.349760   -2.503150    0.288260
  H     -1.694200    1.235470    2.047920
  H     -0.526460    3.201200    0.302140
  H      2.371540    2.121120   -0.838580
  H      3.825560   -1.891320    1.485190
  H      3.552300   -2.267260   -0.221380
  H      3.847130   -0.592590    0.274660
  H     -3.903870   -1.508240   -1.156170
  H     -3.158400   -1.095530    1.040180

 Total Charge           Charge          ....    0
 Multiplicity           Mult            ....    1
 Number of Electrons    NEL             ....  104
 Basis Dimension        Dim             ....  262

ORBITAL ENERGIES
----------------

  NO   OCC          E(Eh)            E(eV)
   0   2.0000     -20.574515      -559.8610
   1   2.0000     -20.562687      -559.5392
   2   2.0000     -20.558848      -559.4347
   3   2.0000     -20.555754      -559.3505
   4   2.0000     -20.555221      -559.3360
   5   2.0000     -11.292794      -307.2925
   6   2.0000     -11.285826      -307.1029
   7   2.0000     -11.285021      -307.0810
   8   2.0000     -11.284780      -307.0745
   9   2.0000     -11.284515      -307.0673
  10   2.0000     -11.282461      -307.0114
  11   2.0000     -11.227543      -305.5170
  12   2.0000     -11.214723      -305.1681
  13   2.0000      -1.392100       -37.8810
  14   2.0000      -1.373721       -37.3808
  15   2.0000      -1.365673       -37.1618
  16   2.0000      -1.351396       -36.7734
  17   2.0000      -1.344861       -36.5955
  18   2.0000      -1.068881       -29.0857
  19   2.0000      -1.054117       -28.6840
  20   2.0000      -1.009744       -27.4765
  21   2.0000      -0.932816       -25.3832
  22   2.0000      -0.880196       -23.9513
  23   2.0000      -0.841141       -22.8886
  24   2.0000      -0.824245       -22.4288
  25   2.0000      -0.767206       -20.8767
  26   2.0000      -0.721888       -19.6436
  27   2.0000      -0.706519       -19.2253
  28   2.0000      -0.698927       -19.0188
  29   2.0000      -0.671254       -18.2658
  30   2.0000      -0.654367       -17.8062
  31   2.0000      -0.647584       -17.6217
  32   2.0000      -0.626418       -17.0457
  33   2.0000      -0.612722       -16.6730
  34   2.0000      -0.612157       -16.6576
  35   2.0000      -0.593216       -16.1422
  36   2.0000      -0.583368       -15.8742
  37   2.0000      -0.560218       -15.2443
  38   2.0000      -0.548934       -14.9373
  39   2.0000      -0.544700       -14.8220
  40   2.0000      -0.537995       -14.6396
  41   2.0000      -0.525235       -14.2924
  42   2.0000      -0.507761       -13.8169
  43   2.0000      -0.504266       -13.7218
  44   2.0000      -0.498750       -13.5717
  45   2.0000      -0.482760       -13.1366
  46   2.0000      -0.461270       -12.5518
  47   2.0000      -0.452476       -12.3125
  48   2.0000      -0.445023       -12.1097
  49   2.0000      -0.430447       -11.7131
  50   2.0000      -0.426971       -11.6185
  51   2.0000      -0.406596       -11.0640
  52   0.0000       0.161377         4.3913
  53   0.0000       0.186321         5.0701
  54   0.0000       0.194657         5.2969
  55   0.0000       0.196816         5.3556
  56   0.0000       0.217152         5.9090

MULLIKEN ATOMIC CHARGES
-----------------------
   0 C :    0.154797
   1 O :   -0.506512
   2 C :    0.107022
   3 C :    0.198618
   4 C :    0.172177
   5 C :    0.227452
   6 C :    0.277343
   7 O :   -0.380521
   8 O :   -0.405216
   9 O :   -0.404219
  10 O :   -0.391544
  11 C :   -0.077811
  12 C :   -0.028297
  13 H :    0.000677
  14 H :    0.065645
  15 H :    0.003964
  16 H :    0.032786
  17 H :    0.035321
  18 H :    0.037666
  19 H :    0.022461
  20 H :    0.032887
  21 H :    0.162452
  22 H :    0.178647
  23 H :    0.183198
  24 H :    0.025168
  25 H :    0.027264
  26 H :    0.060044
  27 H :    0.167562
  28 H :    0.020969
Sum of atomic charges:    0.0000000

LOEWDIN ATOMIC CHARGES
----------------------
   0 C :    0.020413
   1 O :   -0.068926
   2 C :   -0.010034
   3 C :    0.002243
   4 C :   -0.013544
   5 C :    0.004066
   6 C :    0.026593
   7 O :   -0.073764
   8 O :   -0.069598
   9 O :   -0.074731
  10 O :   -0.065335
  11 C :   -0.043655
  12 C :   -0.049013
  13 H :    0.004484
  14 H :    0.030689
  15 H :    0.002927
  16 H :    0.017989
  17 H :    0.027488
  18 H :    0.024230
  19 H :    0.012176
  20 H :    0.014825
  21 H :    0.044306
  22 H :    0.053277
  23 H :    0.055364
  24 H :    0.020513
  25 H :    0.019374
  26 H :    0.026451
  27 H :    0.051116
  28 H :    0.010077

  Mayer bond orders larger than 0.1
B(  0-C ,  1-O ) :   0.9326 B(  0-C ,  5-C ) :   1.0157 B(  0-C , 11-C ) :   1.0082
B(  0-C , 17-H ) :   0.9673 B(  1-O ,  2-C ) :   0.9349 B(  2-C ,  3-C ) :   0.9815
B(  2-C ,  6-C ) :   1.0700 B(  2-C , 13-H ) :   0.9463 B(  3-C ,  4-C ) :   1.0200
B(  3-C ,  8-O ) :   0.9183 B(  3-C , 14-H ) :   0.9394 B(  4-C ,  5-C ) :   1.0020
B(  4-C ,  9-O ) :   0.9799 B(  4-C , 15-H ) :   0.9417 B(  5-C , 10-O ) :   0.9803
B(  5-C , 16-H ) :   0.9535 B(  6-C ,  7-O ) :   1.0076 B(  6-C , 20-H ) :   0.9641
B(  6-C , 28-H ) :   0.9584 B(  7-O , 27-H ) :   0.9974 B(  8-O , 21-H ) :   0.9992
B(  9-O , 22-H ) :   0.9877 B( 10-O , 23-H ) :   0.9862 B( 11-C , 12-C ) :   1.0648
B( 11-C , 18-H ) :   0.9642 B( 11-C , 19-H ) :   0.9619 B( 12-C , 24-H ) :   0.9801
B( 12-C , 25-H ) :   0.9790 B( 12-C , 26-H ) :   0.9753

E(0)                                       ...   -686.591532612
E(0)                                       ...   -686.591532612
E(CORR)(strong-pairs)                      ...     -2.152214721
E(CORR)(weak-pairs)                        ...     -0.001991158
E(CORR)(corrected)                         ...     -2.154205879
E(TOT)                                     ...   -688.745738490
E(CCSD(T))                                 ...   -688.806174405
FINAL SINGLE POINT ENERGY      -688.806174404869

DIPOLE MOMENT
-------------
                                X             Y             Z
Electronic contribution:     -6.03199       5.17656      -3.51932
Nuclear contribution   :      5.45389      -5.47877       4.62759
                        -----------------------------------------
Total Dipole Moment    :     -0.57810      -0.30221       1.10828
                        -----------------------------------------
Magnitude (a.u.)       :      1.28601
Magnitude (Debye)      :      3.26877

Rotational constants in cm-1:     0.034133     0.020508     0.015112
Rotational constants in MHz :  1023.287336   614.823226   453.053839

                             ****ORCA TERMINATED NORMALLY****
TOTAL RUN TIME: 0 days 0 hours 14 minutes 15 seconds 542 msec
