                         Program Version 4.1.x  -  STABLE  -
|  1> ! RHF DLPNO-CCSD(T) cc-pVDZ RIJK cc-pVTZ/JK cc-pVDZ/C
|  2> ! KDIIS SOSCF TightSCF TightPNO
|  3>
|  4> %pal nprocs 4 end
|  5>
|  6> %maxcore 8000
|  7>
|  8> %scf maxiter 300
|  9>      shift shift 0.2 erroff 0.1 end
| 10> end
| 11>
| 12> * xyzfile 0 1 C_Et_glycoside_g.xyz
| 13>
| 14>
| 15>                          ****END OF INPUT****

CARTESIAN COORDINATES (ANGSTROEM)
---------------------------------
  C      1.274140   -0.627260   -0.580880
  O     -0.046320   -1.196800   -0.644330
  C     -0.988840   -0.728720    0.316230
  C     -1.156010    0.800340    0.222240
  C      0.202920    1.495990    0.274130
  C      1.155640    0.898180   -0.757250
  C     -2.294000   -1.479760    0.083210
  O     -2.857520   -1.071840   -1.159760
  O     -2.020590    1.318470    1.243100
  O      0.094090    2.890910   -0.008020
  O      2.452160    1.479390   -0.669270
  C      2.073630   -1.081750    0.648040
  C      2.275380   -2.600630    0.691430
  H     -0.653580   -0.986110    1.338550
  H     -1.654880    1.042020   -0.719600
  H      0.639310    1.364930    1.279650
  H      0.726760    1.086150   -1.752530
  H      1.769770   -1.027410   -1.471890
  H      1.589900   -0.746160    1.574070
  H      3.040500   -0.569310    0.611710
  H     -2.071520   -2.555440    0.082930
  H     -1.657880    1.085030    2.110450
  H     -0.648010    3.242680    0.504720
  H      2.343010    2.439030   -0.734110
  H      2.856280   -2.892910    1.572480
  H      1.318460   -3.130910    0.722420
  H      2.816640   -2.949770   -0.195650
  H     -3.670880   -1.566360   -1.314960
  H     -2.975450   -1.254830    0.915280

 Total Charge           Charge          ....    0
 Multiplicity           Mult            ....    1
 Number of Electrons    NEL             ....  104
 Basis Dimension        Dim             ....  262

ORBITAL ENERGIES
----------------

  NO   OCC          E(Eh)            E(eV)
   0   2.0000     -20.574635      -559.8643
   1   2.0000     -20.561876      -559.5171
   2   2.0000     -20.559764      -559.4596
   3   2.0000     -20.555318      -559.3386
   4   2.0000     -20.554627      -559.3198
   5   2.0000     -11.293177      -307.3030
   6   2.0000     -11.286039      -307.1087
   7   2.0000     -11.284891      -307.0775
   8   2.0000     -11.284716      -307.0727
   9   2.0000     -11.283740      -307.0462
  10   2.0000     -11.281627      -306.9887
  11   2.0000     -11.225720      -305.4674
  12   2.0000     -11.220260      -305.3188
  13   2.0000      -1.391984       -37.8778
  14   2.0000      -1.373762       -37.3820
  15   2.0000      -1.365029       -37.1443
  16   2.0000      -1.351501       -36.7762
  17   2.0000      -1.344351       -36.5816
  18   2.0000      -1.070329       -29.1251
  19   2.0000      -1.054092       -28.6833
  20   2.0000      -1.010939       -27.5091
  21   2.0000      -0.935493       -25.4561
  22   2.0000      -0.882580       -24.0162
  23   2.0000      -0.836834       -22.7714
  24   2.0000      -0.825670       -22.4676
  25   2.0000      -0.768251       -20.9052
  26   2.0000      -0.719968       -19.5913
  27   2.0000      -0.706700       -19.2303
  28   2.0000      -0.698149       -18.9976
  29   2.0000      -0.672035       -18.2870
  30   2.0000      -0.654140       -17.8000
  31   2.0000      -0.644253       -17.5310
  32   2.0000      -0.634181       -17.2569
  33   2.0000      -0.613140       -16.6844
  34   2.0000      -0.609438       -16.5837
  35   2.0000      -0.594587       -16.1795
  36   2.0000      -0.583198       -15.8696
  37   2.0000      -0.566243       -15.4083
  38   2.0000      -0.545862       -14.8537
  39   2.0000      -0.544161       -14.8074
  40   2.0000      -0.536196       -14.5906
  41   2.0000      -0.526727       -14.3330
  42   2.0000      -0.511598       -13.9213
  43   2.0000      -0.504684       -13.7331
  44   2.0000      -0.497214       -13.5299
  45   2.0000      -0.483728       -13.1629
  46   2.0000      -0.460429       -12.5289
  47   2.0000      -0.456492       -12.4218
  48   2.0000      -0.445100       -12.1118
  49   2.0000      -0.430519       -11.7150
  50   2.0000      -0.425747       -11.5852
  51   2.0000      -0.407335       -11.0841
  52   0.0000       0.159679         4.3451
  53   0.0000       0.181163         4.9297
  54   0.0000       0.193422         5.2633
  55   0.0000       0.201145         5.4734
  56   0.0000       0.215091         5.8529

MULLIKEN ATOMIC CHARGES
-----------------------
   0 C :    0.149698
   1 O :   -0.510215
   2 C :    0.114284
   3 C :    0.194656
   4 C :    0.177020
   5 C :    0.227736
   6 C :    0.275088
   7 O :   -0.380622
   8 O :   -0.405509
   9 O :   -0.402941
  10 O :   -0.391209
  11 C :   -0.079434
  12 C :   -0.021027
  13 H :    0.002181
  14 H :    0.065840
  15 H :    0.003741
  16 H :    0.032336
  17 H :    0.036542
  18 H :    0.014139
  19 H :    0.056316
  20 H :    0.032858
  21 H :    0.162497
  22 H :    0.178088
  23 H :    0.182392
  24 H :    0.029112
  25 H :    0.035547
  26 H :    0.032009
  27 H :    0.167538
  28 H :    0.021340
Sum of atomic charges:   -0.0000000

LOEWDIN ATOMIC CHARGES
----------------------
   0 C :    0.017731
   1 O :   -0.069127
   2 C :   -0.009540
   3 C :    0.002409
   4 C :   -0.013430
   5 C :    0.004096
   6 C :    0.026745
   7 O :   -0.073775
   8 O :   -0.069560
   9 O :   -0.074775
  10 O :   -0.067076
  11 C :   -0.044482
  12 C :   -0.049026
  13 H :    0.003856
  14 H :    0.030599
  15 H :    0.003626
  16 H :    0.017994
  17 H :    0.028161
  18 H :    0.009991
  19 H :    0.032109
  20 H :    0.014640
  21 H :    0.044286
  22 H :    0.052939
  23 H :    0.055521
  24 H :    0.021760
  25 H :    0.020602
  26 H :    0.022414
  27 H :    0.051111
  28 H :    0.010201

  Mayer bond orders larger than 0.1
B(  0-C ,  1-O ) :   0.9249 B(  0-C ,  5-C ) :   1.0362 B(  0-C , 11-C ) :   1.0033
B(  0-C , 17-H ) :   0.9636 B(  1-O ,  2-C ) :   0.9313 B(  2-C ,  3-C ) :   0.9828
B(  2-C ,  6-C ) :   1.0696 B(  2-C , 13-H ) :   0.9460 B(  3-C ,  4-C ) :   1.0202
B(  3-C ,  8-O ) :   0.9172 B(  3-C , 14-H ) :   0.9392 B(  4-C ,  5-C ) :   1.0016
B(  4-C ,  9-O ) :   0.9833 B(  4-C , 15-H ) :   0.9429 B(  5-C , 10-O ) :   0.9830
B(  5-C , 16-H ) :   0.9538 B(  6-C ,  7-O ) :   1.0072 B(  6-C , 20-H ) :   0.9640
B(  6-C , 28-H ) :   0.9590 B(  7-O , 27-H ) :   0.9973 B(  8-O , 21-H ) :   0.9992
B(  9-O , 22-H ) :   0.9877 B( 10-O , 23-H ) :   0.9877 B( 11-C , 12-C ) :   1.0668
B( 11-C , 18-H ) :   0.9612 B( 11-C , 19-H ) :   0.9599 B( 12-C , 24-H ) :   0.9833
B( 12-C , 25-H ) :   0.9786 B( 12-C , 26-H ) :   0.9803

E(0)                                       ...   -686.594210888
E(0)                                       ...   -686.594210888
E(CORR)(strong-pairs)                      ...     -2.151946380
E(CORR)(weak-pairs)                        ...     -0.002012837
E(CORR)(corrected)                         ...     -2.153959217
E(TOT)                                     ...   -688.748170106
E(CCSD(T))                                 ...   -688.808547770
FINAL SINGLE POINT ENERGY      -688.808547770108

DIPOLE MOMENT
-------------
                                X             Y             Z
Electronic contribution:     -4.34076       7.06001      -3.51347
Nuclear contribution   :      3.79126      -7.48458       4.57681
                        -----------------------------------------
Total Dipole Moment    :     -0.54950      -0.42457       1.06334
                        -----------------------------------------
Magnitude (a.u.)       :      1.27000
Magnitude (Debye)      :      3.22809

Rotational constants in cm-1:     0.028861     0.023617     0.015565
Rotational constants in MHz :   865.225062   708.019907   466.624807

                             ****ORCA TERMINATED NORMALLY****
TOTAL RUN TIME: 0 days 0 hours 15 minutes 5 seconds 351 msec
