                         Program Version 4.1.x  -  STABLE  -
|  1> ! RHF DLPNO-CCSD(T) cc-pVDZ RIJK cc-pVTZ/JK cc-pVDZ/C
|  2> ! KDIIS SOSCF TightSCF TightPNO
|  3>
|  4> %pal nprocs 4 end
|  5>
|  6> %maxcore 8000
|  7>
|  8> %scf maxiter 300
|  9>      shift shift 0.2 erroff 0.1 end
| 10> end
| 11>
| 12> * xyzfile 0 1 chloropropane_g.xyz
| 13>
| 14>
| 15>                          ****END OF INPUT****

CARTESIAN COORDINATES (ANGSTROEM)
---------------------------------
  C      0.175530    0.886450    0.309040
  Cl     1.469030   -0.347260   -0.067390
  C     -1.155240    0.562000   -0.357560
  C     -1.823810   -0.720960    0.144070
  H      0.574240    1.842100   -0.034480
  H      0.090300    0.903620    1.397850
  H     -1.812930    1.422030   -0.164740
  H     -1.011450    0.517050   -1.443480
  H     -2.788680   -0.873200   -0.350150
  H     -1.199560   -1.596390   -0.057210
  H     -2.004370   -0.676680    1.224600

 Total Charge           Charge          ....    0
 Multiplicity           Mult            ....    1
 Number of Electrons    NEL             ....   42
 Basis Dimension        Dim             ....   95

ORBITAL ENERGIES
----------------

  NO   OCC          E(Eh)            E(eV)
   0   2.0000    -104.809156     -2852.0021
   1   2.0000     -11.299703      -307.4805
   2   2.0000     -11.246445      -306.0313
   3   2.0000     -11.228863      -305.5529
   4   2.0000     -10.535757      -286.6925
   5   2.0000      -8.003191      -217.7779
   6   2.0000      -8.000044      -217.6923
   7   2.0000      -7.999983      -217.6906
   8   2.0000      -1.130106       -30.7517
   9   2.0000      -1.036957       -28.2170
  10   2.0000      -0.921059       -25.0633
  11   2.0000      -0.807474       -21.9725
  12   2.0000      -0.644570       -17.5396
  13   2.0000      -0.630347       -17.1526
  14   2.0000      -0.583967       -15.8905
  15   2.0000      -0.537575       -14.6282
  16   2.0000      -0.513941       -13.9850
  17   2.0000      -0.500988       -13.6326
  18   2.0000      -0.481611       -13.1053
  19   2.0000      -0.426483       -11.6052
  20   2.0000      -0.425689       -11.5836
  21   0.0000       0.170400         4.6368
  22   0.0000       0.199542         5.4298
  23   0.0000       0.217307         5.9132
  24   0.0000       0.225338         6.1318
  25   0.0000       0.246607         6.7105

MULLIKEN ATOMIC CHARGES
-----------------------
   0 C :   -0.037188
   1 Cl:   -0.202018
   2 C :   -0.083106
   3 C :   -0.051615
   4 H :    0.084467
   5 H :    0.082330
   6 H :    0.037286
   7 H :    0.047912
   8 H :    0.036913
   9 H :    0.054444
  10 H :    0.030575
Sum of atomic charges:    0.0000000

LOEWDIN ATOMIC CHARGES
----------------------
   0 C :   -0.055423
   1 Cl:   -0.022206
   2 C :   -0.051678
   3 C :   -0.052250
   4 H :    0.027923
   5 H :    0.025487
   6 H :    0.028526
   7 H :    0.027125
   8 H :    0.025498
   9 H :    0.025841
  10 H :    0.021158

  Mayer bond orders larger than 0.1
B(  0-C ,  1-Cl) :   0.9709 B(  0-C ,  2-C ) :   1.0379 B(  0-C ,  4-H ) :   0.9739
B(  0-C ,  5-H ) :   0.9668 B(  2-C ,  3-C ) :   1.0552 B(  2-C ,  6-H ) :   0.9613
B(  2-C ,  7-H ) :   0.9667 B(  3-C ,  8-H ) :   0.9838 B(  3-C ,  9-H ) :   0.9792
B(  3-C , 10-H ) :   0.9809

E(0)                                       ...   -577.196027247
E(0)                                       ...   -577.196027247
E(CORR)(strong-pairs)                      ...     -0.627583713
E(CORR)(weak-pairs)                        ...     -0.000137467
E(CORR)(corrected)                         ...     -0.627721180
E(TOT)                                     ...   -577.823748426
E(CCSD(T))                                 ...   -577.840311777
FINAL SINGLE POINT ENERGY      -577.840311777486

DIPOLE MOMENT
-------------
                                X             Y             Z
Electronic contribution:      9.54832      -1.47311      -0.53489
Nuclear contribution   :    -10.29812       2.04407       0.67166
                        -----------------------------------------
Total Dipole Moment    :     -0.74981       0.57095       0.13678
                        -----------------------------------------
Magnitude (a.u.)       :      0.95232
Magnitude (Debye)      :      2.42059

Rotational constants in cm-1:     0.394612     0.106333     0.091810
Rotational constants in MHz : 11830.173941  3187.776081  2752.391633

                             ****ORCA TERMINATED NORMALLY****
TOTAL RUN TIME: 0 days 0 hours 1 minutes 25 seconds 144 msec
