                         Program Version 4.1.x  -  STABLE  -
|  1> ! RHF DLPNO-CCSD(T) cc-pVDZ RIJK cc-pVTZ/JK cc-pVDZ/C
|  2> ! KDIIS SOSCF TightSCF TightPNO
|  3>
|  4> %pal nprocs 4 end
|  5>
|  6> %maxcore 8000
|  7>
|  8> %scf maxiter 300
|  9>      shift shift 0.2 erroff 0.1 end
| 10> end
| 11>
| 12> * xyzfile 0 1 chloropropane_a.xyz
| 13>
| 14>
| 15>                          ****END OF INPUT****

CARTESIAN COORDINATES (ANGSTROEM)
---------------------------------
  C     -0.069790    0.583590    0.000010
  Cl    -1.759420   -0.096230   -0.000000
  C      0.985350   -0.514920    0.000000
  C      2.403250    0.073000   -0.000010
  H      0.001710    1.214250    0.888720
  H      0.001740    1.214260   -0.888700
  H      0.841040   -1.151810    0.879880
  H      0.841020   -1.151840   -0.879830
  H      3.151020   -0.726320   -0.000010
  H      2.580350    0.693670   -0.885700
  H      2.580400    0.693640    0.885690

 Total Charge           Charge          ....    0
 Multiplicity           Mult            ....    1
 Number of Electrons    NEL             ....   42
 Basis Dimension        Dim             ....   95

ORBITAL ENERGIES
----------------

  NO   OCC          E(Eh)            E(eV)
   0   2.0000    -104.809384     -2852.0083
   1   2.0000     -11.298511      -307.4481
   2   2.0000     -11.245125      -305.9954
   3   2.0000     -11.237434      -305.7861
   4   2.0000     -10.535929      -286.6972
   5   2.0000      -8.003387      -217.7832
   6   2.0000      -8.000198      -217.6964
   7   2.0000      -8.000148      -217.6951
   8   2.0000      -1.130341       -30.7581
   9   2.0000      -1.042863       -28.3778
  10   2.0000      -0.913064       -24.8457
  11   2.0000      -0.818600       -22.2752
  12   2.0000      -0.660465       -17.9722
  13   2.0000      -0.600983       -16.3536
  14   2.0000      -0.575444       -15.6586
  15   2.0000      -0.573085       -15.5944
  16   2.0000      -0.510860       -13.9012
  17   2.0000      -0.494690       -13.4612
  18   2.0000      -0.491383       -13.3712
  19   2.0000      -0.426540       -11.6067
  20   2.0000      -0.425040       -11.5659
  21   0.0000       0.161089         4.3835
  22   0.0000       0.213481         5.8091
  23   0.0000       0.215922         5.8755
  24   0.0000       0.222325         6.0498
  25   0.0000       0.231833         6.3085

MULLIKEN ATOMIC CHARGES
-----------------------
   0 C :   -0.046791
   1 Cl:   -0.193260
   2 C :   -0.072354
   3 C :   -0.063142
   4 H :    0.082159
   5 H :    0.082158
   6 H :    0.048212
   7 H :    0.048212
   8 H :    0.043247
   9 H :    0.035780
  10 H :    0.035779
Sum of atomic charges:   -0.0000000

LOEWDIN ATOMIC CHARGES
----------------------
   0 C :   -0.060762
   1 Cl:   -0.015500
   2 C :   -0.049728
   3 C :   -0.051362
   4 H :    0.025412
   5 H :    0.025413
   6 H :    0.026567
   7 H :    0.026564
   8 H :    0.028612
   9 H :    0.022391
  10 H :    0.022392

  Mayer bond orders larger than 0.1
B(  0-C ,  1-Cl) :   0.9848 B(  0-C ,  2-C ) :   1.0207 B(  0-C ,  4-H ) :   0.9689
B(  0-C ,  5-H ) :   0.9689 B(  2-C ,  3-C ) :   1.0561 B(  2-C ,  6-H ) :   0.9678
B(  2-C ,  7-H ) :   0.9678 B(  3-C ,  8-H ) :   0.9833 B(  3-C ,  9-H ) :   0.9806
B(  3-C , 10-H ) :   0.9806

E(0)                                       ...   -577.196247653
E(0)                                       ...   -577.196247653
E(CORR)(strong-pairs)                      ...     -0.627332261
E(CORR)(weak-pairs)                        ...     -0.000135565
E(CORR)(corrected)                         ...     -0.627467826
E(TOT)                                     ...   -577.823715478
E(CCSD(T))                                 ...   -577.840234444
FINAL SINGLE POINT ENERGY      -577.840234443515

DIPOLE MOMENT
-------------
                                X             Y             Z
Electronic contribution:    -11.61124      -0.67352      -0.00004
Nuclear contribution   :     12.56811       0.92749       0.00004
                        -----------------------------------------
Total Dipole Moment    :      0.95687       0.25397       0.00001
                        -----------------------------------------
Magnitude (a.u.)       :      0.99000
Magnitude (Debye)      :      2.51638

Rotational constants in cm-1:     0.862840     0.077165     0.073765
Rotational constants in MHz : 25867.301843  2313.340787  2211.419962

                             ****ORCA TERMINATED NORMALLY****
TOTAL RUN TIME: 0 days 0 hours 1 minutes 24 seconds 558 msec
