                         Program Version 4.1.x  -  STABLE  -
|  1> ! RHF DLPNO-CCSD(T) cc-pVDZ RIJK cc-pVTZ/JK cc-pVDZ/C
|  2> ! KDIIS SOSCF TightSCF TightPNO
|  3>
|  4> %pal nprocs 4 end
|  5>
|  6> %maxcore 8000
|  7>
|  8> %scf maxiter 300
|  9>      shift shift 0.2 erroff 0.1 end
| 10> end
| 11>
| 12> * xyzfile 0 1 chlorocyclohexane_eq.xyz
| 13>
| 14>
| 15>                          ****END OF INPUT****

CARTESIAN COORDINATES (ANGSTROEM)
---------------------------------
  C     -0.609500    0.000000    0.373170
  C      0.059210    1.268970   -0.152940
  C      1.559830    1.268160    0.198310
  C      2.261370    0.000010   -0.312300
  C      1.559860   -1.268150    0.198320
  C      0.059240   -1.268980   -0.152950
  Cl    -2.395000   -0.000010   -0.066850
  H      2.031370    2.164590   -0.221390
  H      1.678950    1.335960    1.289210
  H      3.314090    0.000030   -0.005110
  H      2.255200    0.000010   -1.411660
  H      1.678990   -1.335950    1.289220
  H      2.031430   -2.164580   -0.221380
  H     -0.067820    1.310020   -1.242420
  H     -0.435770    2.152860    0.262610
  H     -0.435720   -2.152870    0.262600
  H     -0.067770   -1.310010   -1.242420
  H     -0.607860   -0.000010    1.467530

 Total Charge           Charge          ....    0
 Multiplicity           Mult            ....    1
 Number of Electrons    NEL             ....   64
 Basis Dimension        Dim             ....  157

ORBITAL ENERGIES
----------------

  NO   OCC          E(Eh)            E(eV)
   0   2.0000    -104.802882     -2851.8314
   1   2.0000     -11.297983      -307.4337
   2   2.0000     -11.238840      -305.8244
   3   2.0000     -11.238822      -305.8239
   4   2.0000     -11.236845      -305.7701
   5   2.0000     -11.236799      -305.7688
   6   2.0000     -11.233915      -305.6904
   7   2.0000     -10.529435      -286.5205
   8   2.0000      -7.996810      -217.6043
   9   2.0000      -7.993754      -217.5211
  10   2.0000      -7.993715      -217.5200
  11   2.0000      -1.152343       -31.3569
  12   2.0000      -1.082077       -29.4448
  13   2.0000      -1.017948       -27.6998
  14   2.0000      -0.982001       -26.7216
  15   2.0000      -0.848490       -23.0886
  16   2.0000      -0.825335       -22.4585
  17   2.0000      -0.768609       -20.9149
  18   2.0000      -0.658157       -17.9094
  19   2.0000      -0.619127       -16.8473
  20   2.0000      -0.613224       -16.6867
  21   2.0000      -0.608540       -16.5592
  22   2.0000      -0.546956       -14.8834
  23   2.0000      -0.540672       -14.7124
  24   2.0000      -0.530393       -14.4327
  25   2.0000      -0.510279       -13.8854
  26   2.0000      -0.497996       -13.5512
  27   2.0000      -0.467889       -12.7319
  28   2.0000      -0.455261       -12.3883
  29   2.0000      -0.446808       -12.1583
  30   2.0000      -0.418896       -11.3987
  31   2.0000      -0.416412       -11.3311
  32   0.0000       0.160852         4.3770
  33   0.0000       0.185714         5.0535
  34   0.0000       0.207723         5.6524
  35   0.0000       0.211951         5.7675
  36   0.0000       0.229785         6.2528

MULLIKEN ATOMIC CHARGES
-----------------------
   0 C :   -0.154990
   1 C :    0.032065
   2 C :   -0.056399
   3 C :   -0.042199
   4 C :   -0.056410
   5 C :    0.032074
   6 Cl:   -0.180519
   7 H :    0.033998
   8 H :    0.028577
   9 H :    0.029788
  10 H :    0.029657
  11 H :    0.028578
  12 H :    0.034000
  13 H :    0.040946
  14 H :    0.043517
  15 H :    0.043516
  16 H :    0.040946
  17 H :    0.072855
Sum of atomic charges:   -0.0000000

LOEWDIN ATOMIC CHARGES
----------------------
   0 C :   -0.062165
   1 C :   -0.034520
   2 C :   -0.031443
   3 C :   -0.033276
   4 C :   -0.031445
   5 C :   -0.034512
   6 Cl:   -0.021372
   7 H :    0.024568
   8 H :    0.018115
   9 H :    0.022281
  10 H :    0.018698
  11 H :    0.018115
  12 H :    0.024570
  13 H :    0.023375
  14 H :    0.026432
  15 H :    0.026430
  16 H :    0.023373
  17 H :    0.022775

  Mayer bond orders larger than 0.1
B(  0-C ,  1-C ) :   0.9969 B(  0-C ,  5-C ) :   0.9969 B(  0-C ,  6-Cl) :   0.9972
B(  0-C , 17-H ) :   0.9602 B(  1-C ,  2-C ) :   1.0415 B(  1-C , 13-H ) :   0.9611
B(  1-C , 14-H ) :   0.9693 B(  2-C ,  3-C ) :   1.0417 B(  2-C ,  7-H ) :   0.9718
B(  2-C ,  8-H ) :   0.9640 B(  3-C ,  4-C ) :   1.0417 B(  3-C ,  9-H ) :   0.9725
B(  3-C , 10-H ) :   0.9647 B(  4-C ,  5-C ) :   1.0415 B(  4-C , 11-H ) :   0.9640
B(  4-C , 12-H ) :   0.9718 B(  5-C , 15-H ) :   0.9693 B(  5-C , 16-H ) :   0.9611

E(0)                                       ...   -693.151245240
E(0)                                       ...   -693.151245240
E(CORR)(strong-pairs)                      ...     -1.067520930
E(CORR)(weak-pairs)                        ...     -0.000429721
E(CORR)(corrected)                         ...     -1.067950651
E(TOT)                                     ...   -694.219195890
E(CCSD(T))                                 ...   -694.251589028
FINAL SINGLE POINT ENERGY      -694.251589028310

DIPOLE MOMENT
-------------
                                X             Y             Z
Electronic contribution:    -13.90979      -0.00007      -0.16541
Nuclear contribution   :     14.99987       0.00007       0.32675
                        -----------------------------------------
Total Dipole Moment    :      1.09008       0.00001       0.16134
                        -----------------------------------------
Magnitude (a.u.)       :      1.10195
Magnitude (Debye)      :      2.80094

Rotational constants in cm-1:     0.142200     0.045279     0.036641
Rotational constants in MHz :  4263.055368  1357.437532  1098.458415

                             ****ORCA TERMINATED NORMALLY****
TOTAL RUN TIME: 0 days 0 hours 3 minutes 8 seconds 374 msec
