                         Program Version 4.1.x  -  STABLE  -
|  1> ! RHF DLPNO-CCSD(T) cc-pVDZ RIJK cc-pVTZ/JK cc-pVDZ/C
|  2> ! KDIIS SOSCF TightSCF TightPNO
|  3>
|  4> %pal nprocs 4 end
|  5>
|  6> %maxcore 8000
|  7>
|  8> %scf maxiter 300
|  9>      shift shift 0.2 erroff 0.1 end
| 10> end
| 11>
| 12> * xyzfile 0 1 chlorocyclohexane_ax.xyz
| 13>
| 14>
| 15>                          ****END OF INPUT****

CARTESIAN COORDINATES (ANGSTROEM)
---------------------------------
  C     -0.694900    0.000010    0.827290
  C      0.155060   -1.271960    0.765100
  C      1.152630   -1.270630   -0.403600
  C      2.018130    0.000000   -0.403560
  C      1.152620    1.270640   -0.403610
  C      0.155050    1.271960    0.765100
  Cl    -1.933170   -0.000010   -0.548460
  H      1.785570   -2.163950   -0.343310
  H      0.600400   -1.338990   -1.349070
  H      2.687570    0.000000   -1.272140
  H      2.663340    0.000000    0.487800
  H      0.600390    1.338990   -1.349080
  H      1.785560    2.163950   -0.343320
  H      0.708540   -1.321860    1.715250
  H     -0.493620   -2.153120    0.729930
  H     -0.493630    2.153110    0.729920
  H      0.708530    1.321870    1.715250
  H     -1.320340    0.000010    1.722270

 Total Charge           Charge          ....    0
 Multiplicity           Mult            ....    1
 Number of Electrons    NEL             ....   64
 Basis Dimension        Dim             ....  157

ORBITAL ENERGIES
----------------

  NO   OCC          E(Eh)            E(eV)
   0   2.0000    -104.802058     -2851.8090
   1   2.0000     -11.300491      -307.5020
   2   2.0000     -11.240193      -305.8612
   3   2.0000     -11.240176      -305.8607
   4   2.0000     -11.229296      -305.5647
   5   2.0000     -11.228872      -305.5532
   6   2.0000     -11.228473      -305.5423
   7   2.0000     -10.528755      -286.5020
   8   2.0000      -7.996088      -217.5846
   9   2.0000      -7.993094      -217.5031
  10   2.0000      -7.993069      -217.5025
  11   2.0000      -1.151113       -31.3234
  12   2.0000      -1.072945       -29.1963
  13   2.0000      -1.015633       -27.6368
  14   2.0000      -0.986284       -26.8381
  15   2.0000      -0.845968       -23.0200
  16   2.0000      -0.831628       -22.6298
  17   2.0000      -0.741276       -20.1711
  18   2.0000      -0.669425       -18.2160
  19   2.0000      -0.624017       -16.9804
  20   2.0000      -0.613685       -16.6992
  21   2.0000      -0.592153       -16.1133
  22   2.0000      -0.552771       -15.0417
  23   2.0000      -0.542670       -14.7668
  24   2.0000      -0.536144       -14.5892
  25   2.0000      -0.495246       -13.4763
  26   2.0000      -0.489219       -13.3123
  27   2.0000      -0.460274       -12.5247
  28   2.0000      -0.450378       -12.2554
  29   2.0000      -0.450313       -12.2536
  30   2.0000      -0.418218       -11.3803
  31   2.0000      -0.416337       -11.3291
  32   0.0000       0.168416         4.5828
  33   0.0000       0.186475         5.0742
  34   0.0000       0.199893         5.4394
  35   0.0000       0.217205         5.9104
  36   0.0000       0.235579         6.4104

MULLIKEN ATOMIC CHARGES
-----------------------
   0 C :   -0.131660
   1 C :    0.016113
   2 C :   -0.043215
   3 C :   -0.051303
   4 C :   -0.043215
   5 C :    0.016120
   6 Cl:   -0.195928
   7 H :    0.028709
   8 H :    0.045850
   9 H :    0.029118
  10 H :    0.021289
  11 H :    0.045852
  12 H :    0.028708
  13 H :    0.033782
  14 H :    0.046307
  15 H :    0.046304
  16 H :    0.033783
  17 H :    0.073386
Sum of atomic charges:    0.0000000

LOEWDIN ATOMIC CHARGES
----------------------
   0 C :   -0.049732
   1 C :   -0.036073
   2 C :   -0.032248
   3 C :   -0.033222
   4 C :   -0.032244
   5 C :   -0.036075
   6 Cl:   -0.036359
   7 H :    0.022247
   8 H :    0.022076
   9 H :    0.022177
  10 H :    0.014944
  11 H :    0.022076
  12 H :    0.022246
  13 H :    0.024892
  14 H :    0.026984
  15 H :    0.026983
  16 H :    0.024894
  17 H :    0.026434

  Mayer bond orders larger than 0.1
B(  0-C ,  1-C ) :   1.0158 B(  0-C ,  5-C ) :   1.0158 B(  0-C ,  6-Cl) :   0.9659
B(  0-C , 17-H ) :   0.9726 B(  1-C ,  2-C ) :   1.0400 B(  1-C , 13-H ) :   0.9560
B(  1-C , 14-H ) :   0.9685 B(  2-C ,  3-C ) :   1.0431 B(  2-C ,  7-H ) :   0.9723
B(  2-C ,  8-H ) :   0.9633 B(  3-C ,  4-C ) :   1.0431 B(  3-C ,  9-H ) :   0.9728
B(  3-C , 10-H ) :   0.9656 B(  4-C ,  5-C ) :   1.0400 B(  4-C , 11-H ) :   0.9633
B(  4-C , 12-H ) :   0.9723 B(  5-C , 15-H ) :   0.9685 B(  5-C , 16-H ) :   0.9560

E(0)                                       ...   -693.150298855
E(0)                                       ...   -693.150298855
E(CORR)(strong-pairs)                      ...     -1.067843888
E(CORR)(weak-pairs)                        ...     -0.000440084
E(CORR)(corrected)                         ...     -1.068283972
E(TOT)                                     ...   -694.218582826
E(CCSD(T))                                 ...   -694.251024492
FINAL SINGLE POINT ENERGY      -694.251024492277

DIPOLE MOMENT
-------------
                                X             Y             Z
Electronic contribution:    -11.38801      -0.00002      -2.65284
Nuclear contribution   :     12.15882       0.00003       3.27142
                        -----------------------------------------
Total Dipole Moment    :      0.77081       0.00001       0.61858
                        -----------------------------------------
Magnitude (a.u.)       :      0.98833
Magnitude (Debye)      :      2.51213

Rotational constants in cm-1:     0.106803     0.056597     0.048559
Rotational constants in MHz :  3201.877425  1696.739614  1455.759134

                             ****ORCA TERMINATED NORMALLY****
TOTAL RUN TIME: 0 days 0 hours 3 minutes 17 seconds 445 msec
