                         Program Version 4.1.x  -  STABLE  -
|  1> ! RHF DLPNO-CCSD(T) cc-pVDZ RIJK cc-pVTZ/JK cc-pVDZ/C
|  2> ! KDIIS SOSCF TightSCF TightPNO
|  3>
|  4> %pal nprocs 4 end
|  5>
|  6> %maxcore 8000
|  7>
|  8> %scf maxiter 300
|  9>      shift shift 0.2 erroff 0.1 end
| 10> end
| 11>
| 12> * xyzfile 0 1 cis_2_6_DiMe_cyclOMe_ecl.xyz
| 13>
| 14>
| 15>                          ****END OF INPUT****

CARTESIAN COORDINATES (ANGSTROEM)
---------------------------------
  C      0.471380    0.000130    0.076630
  C     -0.290490   -1.281270   -0.318780
  C     -1.719070   -1.262970    0.258370
  C     -2.492900   -0.000440   -0.139310
  C     -1.719550    1.262400    0.258340
  C     -0.290980    1.281240   -0.318780
  C      0.462590   -2.552810    0.092430
  C      0.461660    2.553020    0.092490
  O      1.756370    0.000460   -0.566460
  C      2.878720    0.000250    0.297800
  H     -2.255210   -2.161950   -0.071790
  H     -3.486040   -0.000620    0.326890
  H     -2.657270   -0.000510   -1.226320
  H     -1.662880    1.323690    1.356210
  H     -2.256020    2.161170   -0.071860
  H     -0.364220   -1.269780   -1.416890
  H     -0.364660    1.269750   -1.416900
  H      0.616930    0.000180    1.171060
  H      3.767500    0.000380   -0.338860
  H      2.903750    0.893290    0.939440
  H      2.903760   -0.893020    0.939100
  H     -0.080700   -3.446890   -0.233980
  H      1.460070   -2.583770   -0.354380
  H      0.570940   -2.612940    1.183310
  H     -1.662350   -1.324210    1.356250
  H      0.569860    2.613190    1.183390
  H     -0.081850    3.446940   -0.234000
  H      1.459200    2.584250   -0.354160

 Total Charge           Charge          ....    0
 Multiplicity           Mult            ....    1
 Number of Electrons    NEL             ....   80
 Basis Dimension        Dim             ....  230

ORBITAL ENERGIES
----------------

  NO   OCC          E(Eh)            E(eV)
   0   2.0000     -20.545758      -559.0785
   1   2.0000     -11.274526      -306.7954
   2   2.0000     -11.273581      -306.7697
   3   2.0000     -11.223572      -305.4089
   4   2.0000     -11.223556      -305.4085
   5   2.0000     -11.221918      -305.3639
   6   2.0000     -11.221390      -305.3495
   7   2.0000     -11.221059      -305.3405
   8   2.0000     -11.214858      -305.1718
   9   2.0000     -11.214850      -305.1716
  10   2.0000      -1.360737       -37.0275
  11   2.0000      -1.118722       -30.4420
  12   2.0000      -1.044387       -28.4192
  13   2.0000      -1.012654       -27.5557
  14   2.0000      -0.942124       -25.6365
  15   2.0000      -0.913643       -24.8615
  16   2.0000      -0.885333       -24.0911
  17   2.0000      -0.807858       -21.9829
  18   2.0000      -0.786545       -21.4030
  19   2.0000      -0.757906       -20.6237
  20   2.0000      -0.654082       -17.7985
  21   2.0000      -0.643767       -17.5178
  22   2.0000      -0.632652       -17.2153
  23   2.0000      -0.611712       -16.6455
  24   2.0000      -0.597493       -16.2586
  25   2.0000      -0.584728       -15.9112
  26   2.0000      -0.562930       -15.3181
  27   2.0000      -0.556018       -15.1300
  28   2.0000      -0.540889       -14.7183
  29   2.0000      -0.531258       -14.4563
  30   2.0000      -0.518712       -14.1149
  31   2.0000      -0.504778       -13.7357
  32   2.0000      -0.486328       -13.2336
  33   2.0000      -0.485351       -13.2071
  34   2.0000      -0.463543       -12.6136
  35   2.0000      -0.460202       -12.5227
  36   2.0000      -0.446584       -12.1522
  37   2.0000      -0.445814       -12.1312
  38   2.0000      -0.427320       -11.6280
  39   2.0000      -0.391647       -10.6572
  40   0.0000       0.181673         4.9436
  41   0.0000       0.187107         5.0914
  42   0.0000       0.199209         5.4208
  43   0.0000       0.199227         5.4213
  44   0.0000       0.229362         6.2412

MULLIKEN ATOMIC CHARGES
-----------------------
   0 C :    0.216498
   1 C :   -0.168654
   2 C :   -0.006875
   3 C :   -0.010748
   4 C :   -0.006862
   5 C :   -0.168652
   6 C :    0.025819
   7 C :    0.025822
   8 O :   -0.511251
   9 C :    0.173776
  10 H :    0.024185
  11 H :    0.022883
  12 H :    0.023741
  13 H :    0.018428
  14 H :    0.024186
  15 H :    0.021320
  16 H :    0.021322
  17 H :   -0.001192
  18 H :    0.040009
  19 H :    0.016651
  20 H :    0.016653
  21 H :    0.027633
  22 H :    0.045762
  23 H :    0.018864
  24 H :    0.018428
  25 H :    0.018856
  26 H :    0.027631
  27 H :    0.045765
Sum of atomic charges:   -0.0000000

LOEWDIN ATOMIC CHARGES
----------------------
   0 C :    0.024720
   1 C :   -0.039537
   2 C :   -0.026906
   3 C :   -0.031153
   4 C :   -0.026906
   5 C :   -0.039535
   6 C :   -0.042781
   7 C :   -0.042780
   8 O :   -0.087806
   9 C :    0.010955
  10 H :    0.020023
  11 H :    0.020012
  12 H :    0.017424
  13 H :    0.014482
  14 H :    0.020024
  15 H :    0.019967
  16 H :    0.019968
  17 H :    0.002820
  18 H :    0.021398
  19 H :    0.004928
  20 H :    0.004927
  21 H :    0.021030
  22 H :    0.024164
  23 H :    0.015444
  24 H :    0.014481
  25 H :    0.015443
  26 H :    0.021028
  27 H :    0.024165

  Mayer bond orders larger than 0.1
B(  0-C ,  1-C ) :   1.0121 B(  0-C ,  5-C ) :   1.0121 B(  0-C ,  8-O ) :   0.8973
B(  0-C , 17-H ) :   0.9435 B(  1-C ,  2-C ) :   1.0147 B(  1-C ,  6-C ) :   1.0647
B(  1-C , 15-H ) :   0.9456 B(  2-C ,  3-C ) :   1.0531 B(  2-C , 10-H ) :   0.9678
B(  2-C , 24-H ) :   0.9589 B(  3-C ,  4-C ) :   1.0531 B(  3-C , 11-H ) :   0.9694
B(  3-C , 12-H ) :   0.9612 B(  4-C ,  5-C ) :   1.0147 B(  4-C , 13-H ) :   0.9589
B(  4-C , 14-H ) :   0.9678 B(  5-C ,  7-C ) :   1.0647 B(  5-C , 16-H ) :   0.9456
B(  6-C , 21-H ) :   0.9792 B(  6-C , 22-H ) :   0.9770 B(  6-C , 23-H ) :   0.9741
B(  7-C , 25-H ) :   0.9741 B(  7-C , 26-H ) :   0.9792 B(  7-C , 27-H ) :   0.9770
B(  8-O ,  9-C ) :   0.9761 B(  9-C , 18-H ) :   0.9944 B(  9-C , 19-H ) :   0.9815
B(  9-C , 20-H ) :   0.9815

E(0)                                       ...   -426.183432338
E(0)                                       ...   -426.183432338
E(CORR)(strong-pairs)                      ...     -1.586901908
E(CORR)(weak-pairs)                        ...     -0.001077724
E(CORR)(corrected)                         ...     -1.587979632
E(TOT)                                     ...   -427.771411971
E(CCSD(T))                                 ...   -427.819629042
FINAL SINGLE POINT ENERGY      -427.819629041876

DIPOLE MOMENT
-------------
                                X             Y             Z
Electronic contribution:      0.56231       0.00067      -2.44595
Nuclear contribution   :     -0.62477      -0.00092       2.88107
                        -----------------------------------------
Total Dipole Moment    :     -0.06246      -0.00025       0.43512
                        -----------------------------------------
Magnitude (a.u.)       :      0.43958
Magnitude (Debye)      :      1.11731

Rotational constants in cm-1:     0.051116     0.041826     0.024797
Rotational constants in MHz :  1532.428852  1253.913346   743.397274

                             ****ORCA TERMINATED NORMALLY****
TOTAL RUN TIME: 0 days 0 hours 8 minutes 9 seconds 458 msec
