                         Program Version 4.1.x  -  STABLE  -
|  1> ! RHF DLPNO-CCSD(T) cc-pVDZ RIJK cc-pVTZ/JK cc-pVDZ/C
|  2> ! KDIIS SOSCF TightSCF TightPNO
|  3>
|  4> %pal nprocs 4 end
|  5>
|  6> %maxcore 8000
|  7>
|  8> %scf maxiter 300
|  9>      shift shift 0.2 erroff 0.1 end
| 10> end
| 11>
| 12> * xyzfile 0 1 cis_1_3_dimethylcyclohex_ax_ax.xyz
| 13>
| 14>
| 15>                          ****END OF INPUT****

CARTESIAN COORDINATES (ANGSTROEM)
---------------------------------
  C     -1.267380    1.190190    0.110650
  C      0.000030    1.569140   -0.673290
  C      1.267410    1.190160    0.110680
  C      1.318170   -0.309530    0.480210
  C     -0.000010   -0.732910    1.175870
  C     -1.318180   -0.309510    0.480220
  C      1.720590   -1.192220   -0.714980
  C     -1.720620   -1.192190   -0.714960
  H      2.166080    1.465180   -0.456880
  H      1.291750    1.782890    1.036710
  H      2.113410   -0.434100    1.229260
  H      0.000020   -0.275670    2.175740
  H      0.000050    1.074110   -1.653310
  H      0.000030    2.646770   -0.879370
  H     -2.113430   -0.434030    1.229270
  H     -1.291730    1.782950    1.036660
  H     -2.166030    1.465210   -0.456930
  H      2.738920   -0.948950   -1.040760
  H      1.703310   -2.254080   -0.443420
  H      1.063420   -1.063480   -1.579280
  H     -0.000010   -1.819180    1.339310
  H     -1.703340   -2.254050   -0.443410
  H     -2.738960   -0.948920   -1.040710
  H     -1.063480   -1.063430   -1.579290

 Total Charge           Charge          ....    0
 Multiplicity           Mult            ....    1
 Number of Electrons    NEL             ....   64
 Basis Dimension        Dim             ....  192

ORBITAL ENERGIES
----------------

  NO   OCC          E(Eh)            E(eV)
   0   2.0000     -11.224836      -305.4433
   1   2.0000     -11.224831      -305.4432
   2   2.0000     -11.218658      -305.2752
   3   2.0000     -11.217911      -305.2549
   4   2.0000     -11.217681      -305.2486
   5   2.0000     -11.217588      -305.2461
   6   2.0000     -11.214994      -305.1755
   7   2.0000     -11.214989      -305.1754
   8   2.0000      -1.117625       -30.4121
   9   2.0000      -1.035891       -28.1880
  10   2.0000      -1.009217       -27.4622
  11   2.0000      -0.926203       -25.2033
  12   2.0000      -0.911820       -24.8119
  13   2.0000      -0.820501       -22.3270
  14   2.0000      -0.790532       -21.5115
  15   2.0000      -0.705417       -19.1954
  16   2.0000      -0.655315       -17.8320
  17   2.0000      -0.612488       -16.6666
  18   2.0000      -0.598448       -16.2846
  19   2.0000      -0.588065       -16.0021
  20   2.0000      -0.568030       -15.4569
  21   2.0000      -0.548369       -14.9219
  22   2.0000      -0.544866       -14.8266
  23   2.0000      -0.530495       -14.4355
  24   2.0000      -0.503885       -13.7114
  25   2.0000      -0.483979       -13.1697
  26   2.0000      -0.480035       -13.0624
  27   2.0000      -0.468293       -12.7429
  28   2.0000      -0.461865       -12.5680
  29   2.0000      -0.433419       -11.7939
  30   2.0000      -0.415031       -11.2936
  31   2.0000      -0.413764       -11.2591
  32   0.0000       0.168377         4.5818
  33   0.0000       0.197756         5.3812
  34   0.0000       0.208919         5.6850
  35   0.0000       0.219377         5.9695
  36   0.0000       0.234298         6.3756

MULLIKEN ATOMIC CHARGES
-----------------------
   0 C :    0.002489
   1 C :   -0.034905
   2 C :    0.002494
   3 C :   -0.188642
   4 C :    0.039448
   5 C :   -0.188639
   6 C :    0.012194
   7 C :    0.012193
   8 H :    0.017528
   9 H :    0.019616
  10 H :    0.011634
  11 H :    0.021741
  12 H :    0.021477
  13 H :    0.023610
  14 H :    0.011635
  15 H :    0.019616
  16 H :    0.017527
  17 H :    0.028050
  18 H :    0.026365
  19 H :    0.026708
  20 H :    0.016738
  21 H :    0.026365
  22 H :    0.028049
  23 H :    0.026710
Sum of atomic charges:   -0.0000000

LOEWDIN ATOMIC CHARGES
----------------------
   0 C :   -0.026294
   1 C :   -0.034067
   2 C :   -0.026296
   3 C :   -0.040886
   4 C :   -0.021879
   5 C :   -0.040886
   6 C :   -0.047752
   7 C :   -0.047752
   8 H :    0.016857
   9 H :    0.016515
  10 H :    0.019928
  11 H :    0.019341
  12 H :    0.013419
  13 H :    0.020085
  14 H :    0.019928
  15 H :    0.016515
  16 H :    0.016855
  17 H :    0.020530
  18 H :    0.020057
  19 H :    0.014855
  20 H :    0.015484
  21 H :    0.020056
  22 H :    0.020530
  23 H :    0.014857

  Mayer bond orders larger than 0.1
B(  0-C ,  1-C ) :   1.0381 B(  0-C ,  5-C ) :   1.0355 B(  0-C , 15-H ) :   0.9654
B(  0-C , 16-H ) :   0.9706 B(  1-C ,  2-C ) :   1.0381 B(  1-C , 12-H ) :   0.9658
B(  1-C , 13-H ) :   0.9729 B(  2-C ,  3-C ) :   1.0355 B(  2-C ,  8-H ) :   0.9706
B(  2-C ,  9-H ) :   0.9654 B(  3-C ,  4-C ) :   1.0314 B(  3-C ,  6-C ) :   1.0376
B(  3-C , 10-H ) :   0.9610 B(  4-C ,  5-C ) :   1.0314 B(  4-C , 11-H ) :   0.9647
B(  4-C , 20-H ) :   0.9667 B(  5-C ,  7-C ) :   1.0376 B(  5-C , 14-H ) :   0.9610
B(  6-C , 17-H ) :   0.9801 B(  6-C , 18-H ) :   0.9812 B(  6-C , 19-H ) :   0.9777
B(  7-C , 21-H ) :   0.9812 B(  7-C , 22-H ) :   0.9801 B(  7-C , 23-H ) :   0.9777

E(0)                                       ...   -312.289823893
E(0)                                       ...   -312.289823893
E(CORR)(strong-pairs)                      ...     -1.251580953
E(CORR)(weak-pairs)                        ...     -0.000588228
E(CORR)(corrected)                         ...     -1.252169181
E(TOT)                                     ...   -313.541993074
E(CCSD(T))                                 ...   -313.580750600
FINAL SINGLE POINT ENERGY      -313.580750599900

DIPOLE MOMENT
-------------
                                X             Y             Z
Electronic contribution:      0.00000       1.38915       1.67741
Nuclear contribution   :     -0.00001      -1.36973      -1.63496
                        -----------------------------------------
Total Dipole Moment    :     -0.00001       0.01942       0.04244
                        -----------------------------------------
Magnitude (a.u.)       :      0.04668
Magnitude (Debye)      :      0.11865

Rotational constants in cm-1:     0.081408     0.064838     0.049563
Rotational constants in MHz :  2440.544542  1943.791319  1485.860976

                             ****ORCA TERMINATED NORMALLY****
TOTAL RUN TIME: 0 days 0 hours 5 minutes 9 seconds 195 msec
