                         Program Version 4.1.x  -  STABLE  -
|  1> ! RHF DLPNO-CCSD(T) cc-pVDZ RIJK cc-pVTZ/JK cc-pVDZ/C
|  2> ! KDIIS SOSCF TightSCF TightPNO
|  3>
|  4> %pal nprocs 4 end
|  5>
|  6> %maxcore 8000
|  7>
|  8> %scf maxiter 300
|  9>      shift shift 0.2 erroff 0.1 end
| 10> end
| 11>
| 12> * xyzfile 0 1 cis_2_6_DiMe_cyclOMe_anti.xyz
| 13>
| 14>
| 15>                          ****END OF INPUT****

CARTESIAN COORDINATES (ANGSTROEM)
---------------------------------
  C      0.450350    0.000120   -0.445210
  C     -0.166930    1.287220    0.147200
  C     -1.698380    1.262590   -0.024810
  C     -2.332910   -0.000600    0.569660
  C     -1.697700   -1.263460   -0.024790
  C     -0.166230   -1.287280    0.147200
  C      0.442900    2.550500   -0.474720
  C      0.444260   -2.550230   -0.474760
  O      1.887330    0.000490   -0.401890
  C      2.503050    0.000570    0.875580
  H     -2.129460    2.161630    0.433870
  H     -3.415600   -0.000890    0.392810
  H     -2.194480   -0.000550    1.660600
  H     -1.936920   -1.319600   -1.097730
  H     -2.128310   -2.162720    0.433880
  H      0.036930    1.298470    1.228980
  H      0.037660   -1.298440    1.228970
  H      0.246060    0.000050   -1.526050
  H      3.580360    0.001070    0.691720
  H      2.251370    0.892590    1.465880
  H      2.252120   -0.891840    1.465610
  H      0.006160    3.451600   -0.029040
  H      1.526610    2.588140   -0.335640
  H      0.249320    2.583550   -1.554140
  H     -1.937620    1.318590   -1.097750
  H      0.250900   -2.583220   -1.554220
  H      0.007810   -3.451560   -0.029270
  H      1.527950   -2.587430   -0.335480

 Total Charge           Charge          ....    0
 Multiplicity           Mult            ....    1
 Number of Electrons    NEL             ....   80
 Basis Dimension        Dim             ....  230

ORBITAL ENERGIES
----------------

  NO   OCC          E(Eh)            E(eV)
   0   2.0000     -20.546356      -559.0948
   1   2.0000     -11.273375      -306.7641
   2   2.0000     -11.272276      -306.7342
   3   2.0000     -11.226942      -305.5006
   4   2.0000     -11.226926      -305.5002
   5   2.0000     -11.224327      -305.4295
   6   2.0000     -11.223768      -305.4143
   7   2.0000     -11.223453      -305.4057
   8   2.0000     -11.214869      -305.1721
   9   2.0000     -11.214868      -305.1721
  10   2.0000      -1.358898       -36.9775
  11   2.0000      -1.120142       -30.4806
  12   2.0000      -1.046557       -28.4783
  13   2.0000      -1.012507       -27.5517
  14   2.0000      -0.944971       -25.7140
  15   2.0000      -0.914644       -24.8887
  16   2.0000      -0.891240       -24.2519
  17   2.0000      -0.805287       -21.9130
  18   2.0000      -0.788744       -21.4628
  19   2.0000      -0.753397       -20.5010
  20   2.0000      -0.660837       -17.9823
  21   2.0000      -0.640237       -17.4217
  22   2.0000      -0.630868       -17.1668
  23   2.0000      -0.620240       -16.8776
  24   2.0000      -0.596988       -16.2449
  25   2.0000      -0.579452       -15.7677
  26   2.0000      -0.561135       -15.2693
  27   2.0000      -0.557269       -15.1641
  28   2.0000      -0.539891       -14.6912
  29   2.0000      -0.530216       -14.4279
  30   2.0000      -0.522415       -14.2156
  31   2.0000      -0.506893       -13.7933
  32   2.0000      -0.494316       -13.4510
  33   2.0000      -0.486434       -13.2366
  34   2.0000      -0.466666       -12.6986
  35   2.0000      -0.464293       -12.6340
  36   2.0000      -0.448154       -12.1949
  37   2.0000      -0.446859       -12.1597
  38   2.0000      -0.418786       -11.3958
  39   2.0000      -0.393744       -10.7143
  40   0.0000       0.179243         4.8775
  41   0.0000       0.187600         5.1049
  42   0.0000       0.194509         5.2929
  43   0.0000       0.199500         5.4287
  44   0.0000       0.228382         6.2146

MULLIKEN ATOMIC CHARGES
-----------------------
   0 C :    0.249287
   1 C :   -0.217089
   2 C :    0.003275
   3 C :   -0.013117
   4 C :    0.003274
   5 C :   -0.217095
   6 C :    0.045905
   7 C :    0.045915
   8 O :   -0.509247
   9 C :    0.174651
  10 H :    0.024149
  11 H :    0.024597
  12 H :    0.021642
  13 H :    0.021883
  14 H :    0.024149
  15 H :    0.012067
  16 H :    0.012064
  17 H :    0.015069
  18 H :    0.041189
  19 H :    0.018613
  20 H :    0.018618
  21 H :    0.024271
  22 H :    0.039277
  23 H :    0.025613
  24 H :    0.021885
  25 H :    0.025615
  26 H :    0.024269
  27 H :    0.039271
Sum of atomic charges:    0.0000000

LOEWDIN ATOMIC CHARGES
----------------------
   0 C :    0.018870
   1 C :   -0.047939
   2 C :   -0.023798
   3 C :   -0.031488
   4 C :   -0.023797
   5 C :   -0.047940
   6 C :   -0.039655
   7 C :   -0.039649
   8 O :   -0.084588
   9 C :    0.010200
  10 H :    0.019944
  11 H :    0.020769
  12 H :    0.016210
  13 H :    0.016128
  14 H :    0.019942
  15 H :    0.012486
  16 H :    0.012486
  17 H :    0.017069
  18 H :    0.022282
  19 H :    0.004892
  20 H :    0.004892
  21 H :    0.019396
  22 H :    0.023430
  23 H :    0.020452
  24 H :    0.016127
  25 H :    0.020454
  26 H :    0.019395
  27 H :    0.023427

  Mayer bond orders larger than 0.1
B(  0-C ,  1-C ) :   1.0004 B(  0-C ,  5-C ) :   1.0004 B(  0-C ,  8-O ) :   0.9305
B(  0-C , 17-H ) :   0.9526 B(  1-C ,  2-C ) :   1.0226 B(  1-C ,  6-C ) :   1.0611
B(  1-C , 15-H ) :   0.9445 B(  2-C ,  3-C ) :   1.0536 B(  2-C , 10-H ) :   0.9669
B(  2-C , 24-H ) :   0.9597 B(  3-C ,  4-C ) :   1.0536 B(  3-C , 11-H ) :   0.9696
B(  3-C , 12-H ) :   0.9607 B(  4-C ,  5-C ) :   1.0226 B(  4-C , 13-H ) :   0.9597
B(  4-C , 14-H ) :   0.9669 B(  5-C ,  7-C ) :   1.0611 B(  5-C , 16-H ) :   0.9446
B(  6-C , 21-H ) :   0.9784 B(  6-C , 22-H ) :   0.9780 B(  6-C , 23-H ) :   0.9744
B(  7-C , 25-H ) :   0.9744 B(  7-C , 26-H ) :   0.9784 B(  7-C , 27-H ) :   0.9780
B(  8-O ,  9-C ) :   0.9720 B(  9-C , 18-H ) :   0.9964 B(  9-C , 19-H ) :   0.9806
B(  9-C , 20-H ) :   0.9806

E(0)                                       ...   -426.180550870
E(0)                                       ...   -426.180550870
E(CORR)(strong-pairs)                      ...     -1.588251258
E(CORR)(weak-pairs)                        ...     -0.000973119
E(CORR)(corrected)                         ...     -1.589224377
E(TOT)                                     ...   -427.769775246
E(CCSD(T))                                 ...   -427.818200319
FINAL SINGLE POINT ENERGY      -427.818200319007

DIPOLE MOMENT
-------------
                                X             Y             Z
Electronic contribution:      1.51739       0.00045      -1.02612
Nuclear contribution   :     -1.83725      -0.00057       1.51751
                        -----------------------------------------
Total Dipole Moment    :     -0.31986      -0.00011       0.49139
                        -----------------------------------------
Magnitude (a.u.)       :      0.58633
Magnitude (Debye)      :      1.49032

Rotational constants in cm-1:     0.048404     0.044235     0.026366
Rotational constants in MHz :  1451.110927  1326.146856   790.418753

                             ****ORCA TERMINATED NORMALLY****
TOTAL RUN TIME: 0 days 0 hours 8 minutes 26 seconds 26 msec
