                         Program Version 4.1.x  -  STABLE  -
|  1> ! RHF DLPNO-CCSD(T) cc-pVDZ RIJK cc-pVTZ/JK cc-pVDZ/C
|  2> ! KDIIS SOSCF TightSCF TightPNO
|  3>
|  4> %pal nprocs 4 end
|  5>
|  6> %maxcore 8000
|  7>
|  8> %scf maxiter 300
|  9>      shift shift 0.2 erroff 0.1 end
| 10> end
| 11>
| 12> * xyzfile 0 1 cis_1_3_dimethylcyclohex_eq_eq.xyz
| 13>
| 14>
| 15>                          ****END OF INPUT****

CARTESIAN COORDINATES (ANGSTROEM)
---------------------------------
  C     -1.270020    1.110680    0.226020
  C      0.000030    1.874140   -0.178630
  C      1.270010    1.110710    0.226040
  C      1.285610   -0.324940   -0.330870
  C     -0.000010   -1.069380    0.075530
  C     -1.285580   -0.324950   -0.330830
  C      2.542940   -1.089660    0.101130
  C     -2.542960   -1.089630    0.101130
  H      2.162810    1.652400   -0.113140
  H      1.331900    1.064810    1.324390
  H      1.294270   -0.253420   -1.430560
  H      0.000030   -1.209910    1.168600
  H     -0.000010    2.025280   -1.268080
  H     -0.000010    2.874080    0.272890
  H     -1.294280   -0.253410   -1.430520
  H     -1.331920    1.064860    1.324370
  H     -2.162750    1.652400   -0.113290
  H      2.562790   -2.098650   -0.327180
  H      3.454460   -0.571700   -0.219390
  H      2.584350   -1.191100    1.193070
  H      0.000010   -2.076080   -0.364760
  H     -3.454460   -0.571640   -0.219410
  H     -2.562850   -2.098610   -0.327200
  H     -2.584410   -1.191090    1.193070

 Total Charge           Charge          ....    0
 Multiplicity           Mult            ....    1
 Number of Electrons    NEL             ....   64
 Basis Dimension        Dim             ....  192

ORBITAL ENERGIES
----------------

  NO   OCC          E(Eh)            E(eV)
   0   2.0000     -11.224031      -305.4214
   1   2.0000     -11.224019      -305.4211
   2   2.0000     -11.219551      -305.2995
   3   2.0000     -11.217851      -305.2532
   4   2.0000     -11.217740      -305.2502
   5   2.0000     -11.216645      -305.2204
   6   2.0000     -11.216361      -305.2127
   7   2.0000     -11.216357      -305.2126
   8   2.0000      -1.120916       -30.5017
   9   2.0000      -1.041379       -28.3374
  10   2.0000      -1.013055       -27.5666
  11   2.0000      -0.918308       -24.9884
  12   2.0000      -0.912291       -24.8247
  13   2.0000      -0.815283       -22.1850
  14   2.0000      -0.779894       -21.2220
  15   2.0000      -0.746964       -20.3259
  16   2.0000      -0.633352       -17.2344
  17   2.0000      -0.616666       -16.7803
  18   2.0000      -0.601551       -16.3690
  19   2.0000      -0.584099       -15.8941
  20   2.0000      -0.578260       -15.7353
  21   2.0000      -0.540045       -14.6954
  22   2.0000      -0.529459       -14.4073
  23   2.0000      -0.526129       -14.3167
  24   2.0000      -0.509181       -13.8555
  25   2.0000      -0.502737       -13.6802
  26   2.0000      -0.470740       -12.8095
  27   2.0000      -0.469430       -12.7738
  28   2.0000      -0.457981       -12.4623
  29   2.0000      -0.443782       -12.0759
  30   2.0000      -0.419450       -11.4138
  31   2.0000      -0.417033       -11.3480
  32   0.0000       0.180733         4.9180
  33   0.0000       0.192595         5.2408
  34   0.0000       0.198089         5.3903
  35   0.0000       0.205319         5.5870
  36   0.0000       0.238172         6.4810

MULLIKEN ATOMIC CHARGES
-----------------------
   0 C :   -0.001210
   1 C :   -0.016374
   2 C :   -0.001204
   3 C :   -0.217220
   4 C :    0.048081
   5 C :   -0.217210
   6 C :    0.031912
   7 C :    0.031904
   8 H :    0.020612
   9 H :    0.018711
  10 H :    0.013170
  11 H :    0.015605
  12 H :    0.020937
  13 H :    0.022450
  14 H :    0.013166
  15 H :    0.018712
  16 H :    0.020615
  17 H :    0.027050
  18 H :    0.026905
  19 H :    0.024885
  20 H :    0.019667
  21 H :    0.026904
  22 H :    0.027047
  23 H :    0.024885
Sum of atomic charges:   -0.0000000

LOEWDIN ATOMIC CHARGES
----------------------
   0 C :   -0.026931
   1 C :   -0.031183
   2 C :   -0.026941
   3 C :   -0.043111
   4 C :   -0.020817
   5 C :   -0.043128
   6 C :   -0.043087
   7 C :   -0.043085
   8 H :    0.017727
   9 H :    0.014599
  10 H :    0.014917
  11 H :    0.013699
  12 H :    0.016003
  13 H :    0.019431
  14 H :    0.014921
  15 H :    0.014596
  16 H :    0.017728
  17 H :    0.020165
  18 H :    0.020157
  19 H :    0.018607
  20 H :    0.016806
  21 H :    0.020158
  22 H :    0.020163
  23 H :    0.018606

  Mayer bond orders larger than 0.1
B(  0-C ,  1-C ) :   1.0541 B(  0-C ,  5-C ) :   1.0179 B(  0-C , 15-H ) :   0.9599
B(  0-C , 16-H ) :   0.9690 B(  1-C ,  2-C ) :   1.0541 B(  1-C , 12-H ) :   0.9608
B(  1-C , 13-H ) :   0.9703 B(  2-C ,  3-C ) :   1.0179 B(  2-C ,  8-H ) :   0.9690
B(  2-C ,  9-H ) :   0.9599 B(  3-C ,  4-C ) :   1.0231 B(  3-C ,  6-C ) :   1.0685
B(  3-C , 10-H ) :   0.9506 B(  4-C ,  5-C ) :   1.0231 B(  4-C , 11-H ) :   0.9558
B(  4-C , 20-H ) :   0.9652 B(  5-C ,  7-C ) :   1.0685 B(  5-C , 14-H ) :   0.9506
B(  6-C , 17-H ) :   0.9792 B(  6-C , 18-H ) :   0.9793 B(  6-C , 19-H ) :   0.9747
B(  7-C , 21-H ) :   0.9793 B(  7-C , 22-H ) :   0.9792 B(  7-C , 23-H ) :   0.9747

E(0)                                       ...   -312.300578087
E(0)                                       ...   -312.300578087
E(CORR)(strong-pairs)                      ...     -1.249661026
E(CORR)(weak-pairs)                        ...     -0.000628942
E(CORR)(corrected)                         ...     -1.250289968
E(TOT)                                     ...   -313.550868055
E(CCSD(T))                                 ...   -313.589415758
FINAL SINGLE POINT ENERGY      -313.589415758096

DIPOLE MOMENT
-------------
                                X             Y             Z
Electronic contribution:      0.00010       1.28944      -0.76057
Nuclear contribution   :     -0.00009      -1.26584       0.71001
                        -----------------------------------------
Total Dipole Moment    :      0.00001       0.02360      -0.05056
                        -----------------------------------------
Magnitude (a.u.)       :      0.05580
Magnitude (Debye)      :      0.14183

Rotational constants in cm-1:     0.096978     0.052752     0.036957
Rotational constants in MHz :  2907.327969  1581.478905  1107.946958

                             ****ORCA TERMINATED NORMALLY****
TOTAL RUN TIME: 0 days 0 hours 5 minutes 0 seconds 387 msec
