                         Program Version 4.1.x  -  STABLE  -
|  1> ! RHF DLPNO-CCSD(T) cc-pVDZ RIJK cc-pVTZ/JK cc-pVDZ/C
|  2> ! KDIIS SOSCF TightSCF TightPNO
|  3>
|  4> %pal nprocs 4 end
|  5>
|  6> %maxcore 8000
|  7>
|  8> %scf maxiter 300
|  9>      shift shift 0.2 erroff 0.1 end
| 10> end
| 11>
| 12> * xyzfile 0 1 cyclohexene_b.xyz
| 13>
| 14>
| 15>                          ****END OF INPUT****

CARTESIAN COORDINATES (ANGSTROEM)
---------------------------------
  C      0.770670   -1.207490   -0.184120
  C     -0.771830   -1.206870   -0.183790
  C     -1.407940    0.088510    0.343180
  C     -0.669140    1.288200   -0.183340
  C      1.407980    0.087080    0.343350
  C      0.670440    1.287560   -0.183200
  H      1.122960   -1.359710   -1.233300
  H      1.162520   -2.076660    0.396970
  H     -1.164100   -2.075360    0.398030
  H     -1.124660   -1.359530   -1.232730
  H     -1.374340    0.120220    1.457700
  H     -2.481230    0.134700    0.040630
  H     -1.237430    2.172370   -0.519410
  H      2.481380    0.132280    0.041030
  H      1.374140    0.118590    1.457870
  H      1.239670    2.171160   -0.519190

 Total Charge           Charge          ....    0
 Multiplicity           Mult            ....    1
 Number of Electrons    NEL             ....   46
 Basis Dimension        Dim             ....  134

ORBITAL ENERGIES
----------------

  NO   OCC          E(Eh)            E(eV)
   0   2.0000     -11.230489      -305.5971
   1   2.0000     -11.230481      -305.5969
   2   2.0000     -11.227677      -305.5206
   3   2.0000     -11.227121      -305.5055
   4   2.0000     -11.225128      -305.4513
   5   2.0000     -11.223512      -305.4073
   6   2.0000      -1.117149       -30.3992
   7   2.0000      -0.998577       -27.1727
   8   2.0000      -0.996527       -27.1169
   9   2.0000      -0.841851       -22.9079
  10   2.0000      -0.803410       -21.8619
  11   2.0000      -0.678660       -18.4673
  12   2.0000      -0.662554       -18.0290
  13   2.0000      -0.635918       -17.3042
  14   2.0000      -0.554715       -15.0946
  15   2.0000      -0.551655       -15.0113
  16   2.0000      -0.547012       -14.8850
  17   2.0000      -0.522649       -14.2220
  18   2.0000      -0.519232       -14.1290
  19   2.0000      -0.453488       -12.3400
  20   2.0000      -0.449402       -12.2289
  21   2.0000      -0.427405       -11.6303
  22   2.0000      -0.338213        -9.2032
  23   0.0000       0.171329         4.6621
  24   0.0000       0.173080         4.7097
  25   0.0000       0.205765         5.5992
  26   0.0000       0.218600         5.9484
  27   0.0000       0.226083         6.1520

MULLIKEN ATOMIC CHARGES
-----------------------
   0 C :   -0.048969
   1 C :   -0.048951
   2 C :   -0.025121
   3 C :   -0.094099
   4 C :   -0.025106
   5 C :   -0.094106
   6 H :    0.035215
   7 H :    0.027315
   8 H :    0.027316
   9 H :    0.035219
  10 H :    0.045683
  11 H :    0.035970
  12 H :    0.023996
  13 H :    0.035968
  14 H :    0.045674
  15 H :    0.023996
Sum of atomic charges:    0.0000000

LOEWDIN ATOMIC CHARGES
----------------------
   0 C :   -0.034804
   1 C :   -0.034803
   2 C :   -0.040810
   3 C :   -0.045667
   4 C :   -0.040808
   5 C :   -0.045661
   6 H :    0.023879
   7 H :    0.020833
   8 H :    0.020834
   9 H :    0.023883
  10 H :    0.027221
  11 H :    0.027059
  12 H :    0.022287
  13 H :    0.027058
  14 H :    0.027213
  15 H :    0.022286

  Mayer bond orders larger than 0.1
B(  0-C ,  1-C ) :   1.0272 B(  0-C ,  4-C ) :   1.0497 B(  0-C ,  6-H ) :   0.9706
B(  0-C ,  7-H ) :   0.9721 B(  1-C ,  2-C ) :   1.0497 B(  1-C ,  8-H ) :   0.9721
B(  1-C ,  9-H ) :   0.9706 B(  2-C ,  3-C ) :   1.0409 B(  2-C , 10-H ) :   0.9526
B(  2-C , 11-H ) :   0.9717 B(  3-C ,  5-C ) :   1.9457 B(  3-C , 12-H ) :   0.9812
B(  4-C ,  5-C ) :   1.0409 B(  4-C , 13-H ) :   0.9717 B(  4-C , 14-H ) :   0.9526
B(  5-C , 15-H ) :   0.9812

E(0)                                       ...   -233.022303809
E(0)                                       ...   -233.022303809
E(CORR)(strong-pairs)                      ...     -0.902136493
E(CORR)(weak-pairs)                        ...     -0.000321173
E(CORR)(corrected)                         ...     -0.902457666
E(TOT)                                     ...   -233.924761476
E(CCSD(T))                                 ...   -233.954746456
FINAL SINGLE POINT ENERGY      -233.954746455576

DIPOLE MOMENT
-------------
                                X             Y             Z
Electronic contribution:      0.00110       2.05888      -0.25862
Nuclear contribution   :     -0.00114      -2.12643       0.30245
                        -----------------------------------------
Total Dipole Moment    :     -0.00005      -0.06756       0.04383
                        -----------------------------------------
Magnitude (a.u.)       :      0.08053
Magnitude (Debye)      :      0.20469

Rotational constants in cm-1:     0.153756     0.153341     0.086784
Rotational constants in MHz :  4609.474852  4597.042994  2601.725562

                             ****ORCA TERMINATED NORMALLY****
TOTAL RUN TIME: 0 days 0 hours 2 minutes 43 seconds 674 msec
