                         Program Version 4.1.x  -  STABLE  -
|  1> ! RHF DLPNO-CCSD(T) cc-pVDZ RIJK cc-pVTZ/JK cc-pVDZ/C
|  2> ! KDIIS SOSCF TightSCF TightPNO
|  3>
|  4> %pal nprocs 4 end
|  5>
|  6> %maxcore 8000
|  7>
|  8> %scf maxiter 300
|  9>      shift shift 0.2 erroff 0.1 end
| 10> end
| 11>
| 12> * xyzfile 0 1 cyclohexane_sofa.xyz
| 13>
| 14>
| 15>                          ****END OF INPUT****

CARTESIAN COORDINATES (ANGSTROEM)
---------------------------------
  C      0.003900    1.491900    0.104200
  C      1.331800    0.718600   -0.010700
  C      1.234900   -0.792200   -0.251800
  C     -1.327500    0.725700   -0.010800
  C     -1.239500   -0.784900   -0.251900
  C     -0.004100   -1.392300    0.416100
  H      0.006100    2.106400    1.038400
  H      0.006600    2.253200   -0.713000
  H      2.005300    1.180300   -0.772400
  H      1.866100    0.848600    0.962000
  H      1.188700   -0.985500   -1.350100
  H      2.158600   -1.302400    0.114500
  H     -1.860500    0.858600    0.962200
  H     -1.998700    1.192000   -0.772000
  H     -2.165700   -1.291200    0.114700
  H     -1.193900   -0.979000   -1.350000
  H     -0.002800   -1.180500    1.511200
  H     -0.007100   -2.501700    0.283600

 Total Charge           Charge          ....    0
 Multiplicity           Mult            ....    1
 Number of Electrons    NEL             ....   48
 Basis Dimension        Dim             ....  144

ORBITAL ENERGIES
----------------

  NO   OCC          E(Eh)            E(eV)
   0   2.0000     -11.224176      -305.4254
   1   2.0000     -11.224062      -305.4223
   2   2.0000     -11.223701      -305.4124
   3   2.0000     -11.223348      -305.4028
   4   2.0000     -11.222901      -305.3907
   5   2.0000     -11.222738      -305.3862
   6   2.0000      -1.105196       -30.0739
   7   2.0000      -0.996850       -27.1257
   8   2.0000      -0.996060       -27.1042
   9   2.0000      -0.828636       -22.5483
  10   2.0000      -0.822485       -22.3810
  11   2.0000      -0.721761       -19.6401
  12   2.0000      -0.637913       -17.3585
  13   2.0000      -0.626566       -17.0497
  14   2.0000      -0.586550       -15.9608
  15   2.0000      -0.572676       -15.5833
  16   2.0000      -0.522244       -14.2110
  17   2.0000      -0.514192       -13.9919
  18   2.0000      -0.511968       -13.9314
  19   2.0000      -0.483779       -13.1643
  20   2.0000      -0.471157       -12.8208
  21   2.0000      -0.429689       -11.6924
  22   2.0000      -0.421059       -11.4576
  23   2.0000      -0.417391       -11.3578
  24   0.0000       0.165723         4.5096
  25   0.0000       0.193992         5.2788
  26   0.0000       0.214612         5.8399
  27   0.0000       0.219231         5.9656
  28   0.0000       0.240499         6.5443

MULLIKEN ATOMIC CHARGES
-----------------------
   0 C :   -0.069751
   1 C :   -0.055240
   2 C :   -0.054058
   3 C :   -0.054941
   4 C :   -0.054040
   5 C :   -0.054330
   6 H :    0.034592
   7 H :    0.031214
   8 H :    0.030892
   9 H :    0.028628
  10 H :    0.024768
  11 H :    0.026428
  12 H :    0.028647
  13 H :    0.030919
  14 H :    0.026523
  15 H :    0.024796
  16 H :    0.025797
  17 H :    0.029157
Sum of atomic charges:    0.0000000

LOEWDIN ATOMIC CHARGES
----------------------
   0 C :   -0.045256
   1 C :   -0.042499
   2 C :   -0.040807
   3 C :   -0.042625
   4 C :   -0.040824
   5 C :   -0.038912
   6 H :    0.025048
   7 H :    0.023190
   8 H :    0.022623
   9 H :    0.020723
  10 H :    0.016658
  11 H :    0.021260
  12 H :    0.020803
  13 H :    0.022698
  14 H :    0.021353
  15 H :    0.016690
  16 H :    0.017517
  17 H :    0.022360

  Mayer bond orders larger than 0.1
B(  0-C ,  1-C ) :   1.0271 B(  0-C ,  3-C ) :   1.0271 B(  0-C ,  6-H ) :   0.9797
B(  0-C ,  7-H ) :   0.9774 B(  1-C ,  2-C ) :   1.0429 B(  1-C ,  8-H ) :   0.9779
B(  1-C ,  9-H ) :   0.9715 B(  2-C ,  5-C ) :   1.0403 B(  2-C , 10-H ) :   0.9663
B(  2-C , 11-H ) :   0.9756 B(  3-C ,  4-C ) :   1.0430 B(  3-C , 12-H ) :   0.9714
B(  3-C , 13-H ) :   0.9779 B(  4-C ,  5-C ) :   1.0403 B(  4-C , 14-H ) :   0.9756
B(  4-C , 15-H ) :   0.9662 B(  5-C , 16-H ) :   0.9654 B(  5-C , 17-H ) :   0.9739

E(0)                                       ...   -234.198846090
E(0)                                       ...   -234.198846090
E(CORR)(strong-pairs)                      ...     -0.938554778
E(CORR)(weak-pairs)                        ...     -0.000352267
E(CORR)(corrected)                         ...     -0.938907045
E(TOT)                                     ...   -235.137753134
E(CCSD(T))                                 ...   -235.166391468
FINAL SINGLE POINT ENERGY      -235.166391468402

DIPOLE MOMENT
-------------
                                X             Y             Z
Electronic contribution:     -0.00291      -0.21532      -0.02655
Nuclear contribution   :      0.00297       0.21305       0.03125
                        -----------------------------------------
Total Dipole Moment    :      0.00006      -0.00227       0.00470
                        -----------------------------------------
Magnitude (a.u.)       :      0.00522
Magnitude (Debye)      :      0.01327

Rotational constants in cm-1:     0.141763     0.139212     0.079882
Rotational constants in MHz :  4249.962572  4173.482625  2394.796084

                             ****ORCA TERMINATED NORMALLY****
TOTAL RUN TIME: 0 days 0 hours 2 minutes 45 seconds 213 msec
