                         Program Version 4.1.x  -  STABLE  -
|  1> ! RHF DLPNO-CCSD(T) cc-pVDZ RIJK cc-pVTZ/JK cc-pVDZ/C
|  2> ! KDIIS SOSCF TightSCF TightPNO
|  3>
|  4> %pal nprocs 4 end
|  5>
|  6> %maxcore 8000
|  7>
|  8> %scf maxiter 300
|  9>      shift shift 0.2 erroff 0.1 end
| 10> end
| 11>
| 12> * xyzfile 0 1 cyclohexene_halfchair.xyz
| 13>
| 14>
| 15>                          ****END OF INPUT****

CARTESIAN COORDINATES (ANGSTROEM)
---------------------------------
  C     -0.698900   -1.193190    0.318230
  C     -1.499790    0.047640   -0.110570
  C     -0.667530    1.306940   -0.056850
  C      0.667550    1.306940    0.056840
  C      1.499790    0.047630    0.110610
  C      0.698900   -1.193170   -0.318260
  H      1.198390    2.256420    0.112410
  H     -1.198360    2.256420   -0.112510
  H     -1.888320   -0.088760   -1.132080
  H     -2.386660    0.164670    0.526460
  H      1.888170   -0.088780    1.132180
  H      2.386730    0.164620   -0.526310
  H      1.244940   -2.106030   -0.052090
  H      0.594630   -1.194590   -1.412140
  H     -0.594630   -1.194670    1.412120
  H     -1.244920   -2.106030    0.051980

 Total Charge           Charge          ....    0
 Multiplicity           Mult            ....    1
 Number of Electrons    NEL             ....   46
 Basis Dimension        Dim             ....  134

ORBITAL ENERGIES
----------------

  NO   OCC          E(Eh)            E(eV)
   0   2.0000     -11.226781      -305.4962
   1   2.0000     -11.226733      -305.4949
   2   2.0000     -11.225648      -305.4654
   3   2.0000     -11.224090      -305.4230
   4   2.0000     -11.222978      -305.3928
   5   2.0000     -11.222394      -305.3769
   6   2.0000      -1.114520       -30.3276
   7   2.0000      -1.001778       -27.2598
   8   2.0000      -0.999076       -27.1862
   9   2.0000      -0.843259       -22.9462
  10   2.0000      -0.813699       -22.1419
  11   2.0000      -0.695134       -18.9156
  12   2.0000      -0.662462       -18.0265
  13   2.0000      -0.610359       -16.6087
  14   2.0000      -0.579640       -15.7728
  15   2.0000      -0.562298       -15.3009
  16   2.0000      -0.534884       -14.5549
  17   2.0000      -0.526182       -14.3181
  18   2.0000      -0.521246       -14.1838
  19   2.0000      -0.461519       -12.5586
  20   2.0000      -0.448183       -12.1957
  21   2.0000      -0.434211       -11.8155
  22   2.0000      -0.338352        -9.2070
  23   0.0000       0.171939         4.6787
  24   0.0000       0.189102         5.1457
  25   0.0000       0.215515         5.8645
  26   0.0000       0.221001         6.0137
  27   0.0000       0.224600         6.1117

MULLIKEN ATOMIC CHARGES
-----------------------
   0 C :   -0.048650
   1 C :   -0.000251
   2 C :   -0.093246
   3 C :   -0.093249
   4 C :   -0.000243
   5 C :   -0.048655
   6 H :    0.018053
   7 H :    0.018053
   8 H :    0.038987
   9 H :    0.033210
  10 H :    0.038987
  11 H :    0.033208
  12 H :    0.023003
  13 H :    0.028893
  14 H :    0.028896
  15 H :    0.023004
Sum of atomic charges:   -0.0000000

LOEWDIN ATOMIC CHARGES
----------------------
   0 C :   -0.029737
   1 C :   -0.035964
   2 C :   -0.042896
   3 C :   -0.042896
   4 C :   -0.035964
   5 C :   -0.029738
   6 H :    0.021122
   7 H :    0.021122
   8 H :    0.024398
   9 H :    0.024976
  10 H :    0.024400
  11 H :    0.024973
  12 H :    0.019184
  13 H :    0.018917
  14 H :    0.018919
  15 H :    0.019184

  Mayer bond orders larger than 0.1
B(  0-C ,  1-C ) :   1.0504 B(  0-C ,  5-C ) :   1.0438 B(  0-C , 14-H ) :   0.9657
B(  0-C , 15-H ) :   0.9726 B(  1-C ,  2-C ) :   1.0422 B(  1-C ,  8-H ) :   0.9544
B(  1-C ,  9-H ) :   0.9660 B(  2-C ,  3-C ) :   1.9552 B(  2-C ,  7-H ) :   0.9749
B(  3-C ,  4-C ) :   1.0422 B(  3-C ,  6-H ) :   0.9749 B(  4-C ,  5-C ) :   1.0504
B(  4-C , 10-H ) :   0.9544 B(  4-C , 11-H ) :   0.9660 B(  5-C , 12-H ) :   0.9726
B(  5-C , 13-H ) :   0.9657

E(0)                                       ...   -233.036697161
E(0)                                       ...   -233.036697161
E(CORR)(strong-pairs)                      ...     -0.898248985
E(CORR)(weak-pairs)                        ...     -0.000324409
E(CORR)(corrected)                         ...     -0.898573394
E(TOT)                                     ...   -233.935270555
E(CCSD(T))                                 ...   -233.964808408
FINAL SINGLE POINT ENERGY      -233.964808408086

DIPOLE MOMENT
-------------
                                X             Y             Z
Electronic contribution:      0.00005       1.93818      -0.00003
Nuclear contribution   :     -0.00005      -2.03682       0.00002
                        -----------------------------------------
Total Dipole Moment    :     -0.00000      -0.09864      -0.00002
                        -----------------------------------------
Magnitude (a.u.)       :      0.09864
Magnitude (Debye)      :      0.25073

Rotational constants in cm-1:     0.156973     0.150683     0.084596
Rotational constants in MHz :  4705.935842  4517.363961  2536.130368

                             ****ORCA TERMINATED NORMALLY****
TOTAL RUN TIME: 0 days 0 hours 1 minutes 54 seconds 501 msec
