                         Program Version 4.1.x  -  STABLE  -
|  1> ! RHF DLPNO-CCSD(T) cc-pVDZ RIJK cc-pVTZ/JK cc-pVDZ/C
|  2> ! KDIIS SOSCF TightSCF TightPNO
|  3>
|  4> %pal nprocs 4 end
|  5>
|  6> %maxcore 8000
|  7>
|  8> %scf maxiter 300
|  9>      shift shift 0.2 erroff 0.1 end
| 10> end
| 11>
| 12> * xyzfile 0 1 cyclohexane_chair.xyz
| 13>
| 14>
| 15>                          ****END OF INPUT****

CARTESIAN COORDINATES (ANGSTROEM)
---------------------------------
  C      0.434800    1.394100   -0.237500
  C      1.424300    0.320200    0.237400
  C      0.990200   -1.072900   -0.237400
  C     -0.990100    1.073200    0.237200
  C     -1.424900   -0.320400   -0.237200
  C     -0.434700   -1.393900    0.237200
  H      0.747000    2.395500    0.145300
  H      0.451900    1.448300   -1.351600
  H      2.448200    0.551100   -0.144700
  H      1.480900    0.332900    1.352200
  H      1.029500   -1.115400   -1.352100
  H      1.701100   -1.845000    0.145100
  H     -1.028700    1.115000    1.352300
  H     -1.701100    1.844100   -0.144500
  H     -2.448000   -0.550800    0.144500
  H     -1.480100   -0.333300   -1.352100
  H     -0.451900   -1.449200    1.352200
  H     -0.746900   -2.395300   -0.145500

 Total Charge           Charge          ....    0
 Multiplicity           Mult            ....    1
 Number of Electrons    NEL             ....   48
 Basis Dimension        Dim             ....  144

ORBITAL ENERGIES
----------------

  NO   OCC          E(Eh)            E(eV)
   0   2.0000     -11.224490      -305.4339
   1   2.0000     -11.224226      -305.4267
   2   2.0000     -11.224204      -305.4261
   3   2.0000     -11.223640      -305.4108
   4   2.0000     -11.223614      -305.4101
   5   2.0000     -11.223313      -305.4019
   6   2.0000      -1.109609       -30.1940
   7   2.0000      -0.995442       -27.0873
   8   2.0000      -0.995207       -27.0810
   9   2.0000      -0.819427       -22.2977
  10   2.0000      -0.819255       -22.2931
  11   2.0000      -0.742430       -20.2025
  12   2.0000      -0.640858       -17.4386
  13   2.0000      -0.597458       -16.2577
  14   2.0000      -0.589977       -16.0541
  15   2.0000      -0.589934       -16.0529
  16   2.0000      -0.519208       -14.1284
  17   2.0000      -0.518982       -14.1222
  18   2.0000      -0.509008       -13.8508
  19   2.0000      -0.476372       -12.9627
  20   2.0000      -0.476240       -12.9591
  21   2.0000      -0.448297       -12.1988
  22   2.0000      -0.421133       -11.4596
  23   2.0000      -0.420838       -11.4516
  24   0.0000       0.177619         4.8333
  25   0.0000       0.194440         5.2910
  26   0.0000       0.216140         5.8815
  27   0.0000       0.216163         5.8821
  28   0.0000       0.257345         7.0027

MULLIKEN ATOMIC CHARGES
-----------------------
   0 C :   -0.053678
   1 C :   -0.054098
   2 C :   -0.053951
   3 C :   -0.053953
   4 C :   -0.053579
   5 C :   -0.054277
   6 H :    0.027199
   7 H :    0.026792
   8 H :    0.027097
   9 H :    0.026821
  10 H :    0.026823
  11 H :    0.027199
  12 H :    0.026790
  13 H :    0.027022
  14 H :    0.027085
  15 H :    0.026739
  16 H :    0.026846
  17 H :    0.027123
Sum of atomic charges:    0.0000000

LOEWDIN ATOMIC CHARGES
----------------------
   0 C :   -0.038661
   1 C :   -0.038959
   2 C :   -0.038920
   3 C :   -0.038818
   4 C :   -0.038844
   5 C :   -0.038777
   6 H :    0.020908
   7 H :    0.017888
   8 H :    0.020909
   9 H :    0.017983
  10 H :    0.017969
  11 H :    0.020960
  12 H :    0.017995
  13 H :    0.020772
  14 H :    0.020820
  15 H :    0.017967
  16 H :    0.017964
  17 H :    0.020844

  Mayer bond orders larger than 0.1
B(  0-C ,  1-C ) :   1.0398 B(  0-C ,  3-C ) :   1.0398 B(  0-C ,  6-H ) :   0.9737
B(  0-C ,  7-H ) :   0.9644 B(  1-C ,  2-C ) :   1.0399 B(  1-C ,  8-H ) :   0.9737
B(  1-C ,  9-H ) :   0.9644 B(  2-C ,  5-C ) :   1.0398 B(  2-C , 10-H ) :   0.9644
B(  2-C , 11-H ) :   0.9737 B(  3-C ,  4-C ) :   1.0399 B(  3-C , 12-H ) :   0.9644
B(  3-C , 13-H ) :   0.9737 B(  4-C ,  5-C ) :   1.0398 B(  4-C , 14-H ) :   0.9737
B(  4-C , 15-H ) :   0.9644 B(  5-C , 16-H ) :   0.9644 B(  5-C , 17-H ) :   0.9737

E(0)                                       ...   -234.219934409
E(0)                                       ...   -234.219934409
E(CORR)(strong-pairs)                      ...     -0.937954829
E(CORR)(weak-pairs)                        ...     -0.000353387
E(CORR)(corrected)                         ...     -0.938308216
E(TOT)                                     ...   -235.158242625
E(CCSD(T))                                 ...   -235.186972707
FINAL SINGLE POINT ENERGY      -235.186972706546

DIPOLE MOMENT
-------------
                                X             Y             Z
Electronic contribution:     -0.00271       0.00242      -0.00184
Nuclear contribution   :      0.00217      -0.00217       0.00137
                        -----------------------------------------
Total Dipole Moment    :     -0.00054       0.00025      -0.00048
                        -----------------------------------------
Magnitude (a.u.)       :      0.00076
Magnitude (Debye)      :      0.00194

Rotational constants in cm-1:     0.142803     0.142749     0.081970
Rotational constants in MHz :  4281.139400  4279.520215  2457.403178

                             ****ORCA TERMINATED NORMALLY****
TOTAL RUN TIME: 0 days 0 hours 2 minutes 39 seconds 601 msec
