                         Program Version 4.1.x  -  STABLE  -
|  1> ! RHF DLPNO-CCSD(T) cc-pVDZ RIJK cc-pVTZ/JK cc-pVDZ/C
|  2> ! KDIIS SOSCF TightSCF TightPNO
|  3>
|  4> %pal nprocs 4 end
|  5>
|  6> %maxcore 8000
|  7>
|  8> %scf maxiter 300
|  9>      shift shift 0.2 erroff 0.1 end
| 10> end
| 11>
| 12> * xyzfile 0 1 cyclohexane_twb.xyz
| 13>
| 14>
| 15>                          ****END OF INPUT****

CARTESIAN COORDINATES (ANGSTROEM)
---------------------------------
  C      1.528920   -0.000010    0.000040
  C      0.666100   -1.228750    0.381620
  C     -0.666130   -1.228710   -0.381660
  C     -1.528910   -0.000000    0.000040
  C     -0.666100    1.228760    0.381630
  C      0.666110    1.228730   -0.381670
  H     -0.455760   -1.216770   -1.459750
  H     -1.222420   -2.154000   -0.191140
  H     -2.187650   -0.255070    0.839630
  H     -1.222400    2.154020    0.191040
  H      1.222370   -2.154030    0.191030
  H      0.455740    1.216740   -1.459750
  H      2.187820   -0.255050   -0.839440
  H      2.187650    0.255070    0.839640
  H     -0.455710    1.216890    1.459710
  H     -2.187790    0.255040   -0.839460
  H      1.222420    2.154000   -0.191170
  H      0.455730   -1.216900    1.459710

 Total Charge           Charge          ....    0
 Multiplicity           Mult            ....    1
 Number of Electrons    NEL             ....   48
 Basis Dimension        Dim             ....  144

ORBITAL ENERGIES
----------------

  NO   OCC          E(Eh)            E(eV)
   0   2.0000     -11.219776      -305.3056
   1   2.0000     -11.219626      -305.3015
   2   2.0000     -11.219367      -305.2945
   3   2.0000     -11.219008      -305.2847
   4   2.0000     -11.218768      -305.2782
   5   2.0000     -11.218586      -305.2733
   6   2.0000      -1.106010       -30.0961
   7   2.0000      -0.994166       -27.0526
   8   2.0000      -0.992160       -26.9980
   9   2.0000      -0.835631       -22.7387
  10   2.0000      -0.826482       -22.4897
  11   2.0000      -0.720994       -19.6192
  12   2.0000      -0.649108       -17.6631
  13   2.0000      -0.642444       -17.4818
  14   2.0000      -0.589775       -16.0486
  15   2.0000      -0.552919       -15.0457
  16   2.0000      -0.520861       -14.1734
  17   2.0000      -0.510387       -13.8883
  18   2.0000      -0.502243       -13.6667
  19   2.0000      -0.497628       -13.5412
  20   2.0000      -0.488689       -13.2979
  21   2.0000      -0.427296       -11.6273
  22   2.0000      -0.425805       -11.5868
  23   2.0000      -0.423911       -11.5352
  24   0.0000       0.173281         4.7152
  25   0.0000       0.198730         5.4077
  26   0.0000       0.215720         5.8700
  27   0.0000       0.226102         6.1525
  28   0.0000       0.242797         6.6068

MULLIKEN ATOMIC CHARGES
-----------------------
   0 C :   -0.027854
   1 C :   -0.060073
   2 C :   -0.060079
   3 C :   -0.027847
   4 C :   -0.060068
   5 C :   -0.060074
   6 H :    0.024891
   7 H :    0.024511
   8 H :    0.024596
   9 H :    0.024513
  10 H :    0.024511
  11 H :    0.024892
  12 H :    0.024597
  13 H :    0.024596
  14 H :    0.024892
  15 H :    0.024596
  16 H :    0.024511
  17 H :    0.024891
Sum of atomic charges:    0.0000000

LOEWDIN ATOMIC CHARGES
----------------------
   0 C :   -0.032306
   1 C :   -0.035863
   2 C :   -0.035864
   3 C :   -0.032308
   4 C :   -0.035860
   5 C :   -0.035859
   6 H :    0.015515
   7 H :    0.018951
   8 H :    0.017551
   9 H :    0.018949
  10 H :    0.018949
  11 H :    0.015514
  12 H :    0.017550
  13 H :    0.017550
  14 H :    0.015515
  15 H :    0.017552
  16 H :    0.018948
  17 H :    0.015515

  Mayer bond orders larger than 0.1
B(  0-C ,  1-C ) :   1.0424 B(  0-C ,  5-C ) :   1.0424 B(  0-C , 12-H ) :   0.9710
B(  0-C , 13-H ) :   0.9710 B(  1-C ,  2-C ) :   1.0450 B(  1-C , 10-H ) :   0.9754
B(  1-C , 17-H ) :   0.9662 B(  2-C ,  3-C ) :   1.0424 B(  2-C ,  6-H ) :   0.9662
B(  2-C ,  7-H ) :   0.9754 B(  3-C ,  4-C ) :   1.0424 B(  3-C ,  8-H ) :   0.9710
B(  3-C , 15-H ) :   0.9710 B(  4-C ,  5-C ) :   1.0450 B(  4-C ,  9-H ) :   0.9754
B(  4-C , 14-H ) :   0.9662 B(  5-C , 11-H ) :   0.9662 B(  5-C , 16-H ) :   0.9754

E(0)                                       ...   -234.212317165
E(0)                                       ...   -234.212317165
E(CORR)(strong-pairs)                      ...     -0.935116089
E(CORR)(weak-pairs)                        ...     -0.000350305
E(CORR)(corrected)                         ...     -0.935466393
E(TOT)                                     ...   -235.147783559
E(CCSD(T))                                 ...   -235.176120668
FINAL SINGLE POINT ENERGY      -235.176120667517

DIPOLE MOMENT
-------------
                                X             Y             Z
Electronic contribution:     -0.00002       0.00008      -0.00004
Nuclear contribution   :      0.00002      -0.00008       0.00004
                        -----------------------------------------
Total Dipole Moment    :     -0.00000       0.00000      -0.00000
                        -----------------------------------------
Magnitude (a.u.)       :      0.00000
Magnitude (Debye)      :      0.00001

Rotational constants in cm-1:     0.145256     0.137941     0.083824
Rotational constants in MHz :  4354.661850  4135.370656  2512.985405

                             ****ORCA TERMINATED NORMALLY****
TOTAL RUN TIME: 0 days 0 hours 1 minutes 51 seconds 597 msec
