                         Program Version 4.1.x  -  STABLE  -
|  1> ! RHF DLPNO-CCSD(T) cc-pVDZ RIJK cc-pVTZ/JK cc-pVDZ/C
|  2> ! KDIIS SOSCF TightSCF TightPNO
|  3>
|  4> %pal nprocs 4 end
|  5>
|  6> %maxcore 8000
|  7>
|  8> %scf maxiter 300
|  9>      shift shift 0.2 erroff 0.1 end
| 10> end
| 11>
| 12> * xyzfile 0 1 cyclohexene_hc.xyz
| 13>
| 14>
| 15>                          ****END OF INPUT****

CARTESIAN COORDINATES (ANGSTROEM)
---------------------------------
  C     -0.690390   -1.186450   -0.333550
  C      0.690470   -1.186430    0.333510
  C      1.490890    0.042970   -0.118970
  C      0.668570    1.302850   -0.051510
  C     -1.490890    0.042860    0.119030
  C     -0.668680    1.302780    0.051490
  H     -1.249580   -2.119720   -0.082190
  H     -0.559340   -1.169400   -1.442210
  H      1.249740   -2.119650    0.082090
  H      0.559420   -1.169460    1.442160
  H      1.841170   -0.084590   -1.170260
  H      2.393050    0.153780    0.528240
  H      1.207970    2.264400   -0.107030
  H     -1.841050   -0.084750    1.170350
  H     -2.393120    0.153590   -0.528110
  H     -1.208150    2.264310    0.106950

 Total Charge           Charge          ....    0
 Multiplicity           Mult            ....    1
 Number of Electrons    NEL             ....   46
 Basis Dimension        Dim             ....  134

ORBITAL ENERGIES
----------------

  NO   OCC          E(Eh)            E(eV)
   0   2.0000     -11.230670      -305.6021
   1   2.0000     -11.230665      -305.6019
   2   2.0000     -11.227648      -305.5198
   3   2.0000     -11.227379      -305.5125
   4   2.0000     -11.227053      -305.5037
   5   2.0000     -11.225792      -305.4693
   6   2.0000      -1.116509       -30.3818
   7   2.0000      -1.000083       -27.2136
   8   2.0000      -0.997569       -27.1452
   9   2.0000      -0.837719       -22.7955
  10   2.0000      -0.809481       -22.0271
  11   2.0000      -0.691784       -18.8244
  12   2.0000      -0.659482       -17.9454
  13   2.0000      -0.604967       -16.4620
  14   2.0000      -0.579573       -15.7710
  15   2.0000      -0.560120       -15.2416
  16   2.0000      -0.534092       -14.5334
  17   2.0000      -0.525753       -14.3065
  18   2.0000      -0.519384       -14.1332
  19   2.0000      -0.463048       -12.6002
  20   2.0000      -0.443808       -12.0766
  21   2.0000      -0.432043       -11.7565
  22   2.0000      -0.338113        -9.2005
  23   0.0000       0.169379         4.6090
  24   0.0000       0.188049         5.1171
  25   0.0000       0.212695         5.7877
  26   0.0000       0.218665         5.9502
  27   0.0000       0.223844         6.0911

MULLIKEN ATOMIC CHARGES
-----------------------
   0 C :   -0.060865
   1 C :   -0.060864
   2 C :   -0.009302
   3 C :   -0.097164
   4 C :   -0.009294
   5 C :   -0.097172
   6 H :    0.027983
   7 H :    0.033198
   8 H :    0.027987
   9 H :    0.033195
  10 H :    0.044361
  11 H :    0.037943
  12 H :    0.023842
  13 H :    0.044364
  14 H :    0.037945
  15 H :    0.023843
Sum of atomic charges:    0.0000000

LOEWDIN ATOMIC CHARGES
----------------------
   0 C :   -0.034704
   1 C :   -0.034705
   2 C :   -0.039630
   3 C :   -0.046805
   4 C :   -0.039631
   5 C :   -0.046810
   6 H :    0.021335
   7 H :    0.021482
   8 H :    0.021338
   9 H :    0.021479
  10 H :    0.027208
  11 H :    0.027222
  12 H :    0.023893
  13 H :    0.027209
  14 H :    0.027225
  15 H :    0.023894

  Mayer bond orders larger than 0.1
B(  0-C ,  1-C ) :   1.0393 B(  0-C ,  4-C ) :   1.0476 B(  0-C ,  6-H ) :   0.9732
B(  0-C ,  7-H ) :   0.9657 B(  1-C ,  2-C ) :   1.0476 B(  1-C ,  8-H ) :   0.9732
B(  1-C ,  9-H ) :   0.9657 B(  2-C ,  3-C ) :   1.0395 B(  2-C , 10-H ) :   0.9543
B(  2-C , 11-H ) :   0.9669 B(  3-C ,  5-C ) :   1.9527 B(  3-C , 12-H ) :   0.9752
B(  4-C ,  5-C ) :   1.0395 B(  4-C , 13-H ) :   0.9543 B(  4-C , 14-H ) :   0.9669
B(  5-C , 15-H ) :   0.9752

E(0)                                       ...   -233.033396167
E(0)                                       ...   -233.033396167
E(CORR)(strong-pairs)                      ...     -0.901263659
E(CORR)(weak-pairs)                        ...     -0.000326190
E(CORR)(corrected)                         ...     -0.901589850
E(TOT)                                     ...   -233.934986016
E(CCSD(T))                                 ...   -233.964875490
FINAL SINGLE POINT ENERGY      -233.964875490393

DIPOLE MOMENT
-------------
                                X             Y             Z
Electronic contribution:     -0.00013       1.92071       0.00002
Nuclear contribution   :      0.00013      -2.01027      -0.00001
                        -----------------------------------------
Total Dipole Moment    :      0.00000      -0.08956       0.00001
                        -----------------------------------------
Magnitude (a.u.)       :      0.08956
Magnitude (Debye)      :      0.22765

Rotational constants in cm-1:     0.156917     0.151441     0.085360
Rotational constants in MHz :  4704.246897  4540.082923  2559.042916

                             ****ORCA TERMINATED NORMALLY****
TOTAL RUN TIME: 0 days 0 hours 2 minutes 42 seconds 876 msec
