                         Program Version 4.1.x  -  STABLE  -
|  1> ! RHF DLPNO-CCSD(T) cc-pVDZ RIJK cc-pVTZ/JK cc-pVDZ/C
|  2> ! KDIIS SOSCF TightSCF TightPNO
|  3>
|  4> %pal nprocs 4 end
|  5>
|  6> %maxcore 8000
|  7>
|  8> %scf maxiter 300
|  9>      shift shift 0.2 erroff 0.1 end
| 10> end
| 11>
| 12> * xyzfile 0 1 cyclohexanethiol_eq.xyz
| 13>
| 14>
| 15>                          ****END OF INPUT****

CARTESIAN COORDINATES (ANGSTROEM)
---------------------------------
  C      0.616310    0.010470    0.371980
  C     -0.071590   -1.266630   -0.135390
  C     -1.570490   -1.264060    0.214070
  C     -2.275290   -0.003750   -0.310670
  C     -1.576930    1.271890    0.184640
  C     -0.077800    1.268940   -0.167390
  S      2.408610   -0.076070   -0.101770
  H     -2.043540   -2.165310   -0.194310
  H     -1.687690   -1.317850    1.305990
  H     -3.328530   -0.003360   -0.004520
  H     -2.268440   -0.016320   -1.410150
  H     -1.695160    1.350690    1.275130
  H     -2.053890    2.161350   -0.244720
  H      0.049690   -1.328040   -1.226040
  H      0.416570   -2.150730    0.290560
  H      0.406040    2.167920    0.233880
  H      0.049190    1.301760   -1.257630
  H      0.577170    0.015950    1.468220
  H      2.775510    1.099940    0.448390

 Total Charge           Charge          ....    0
 Multiplicity           Mult            ....    1
 Number of Electrons    NEL             ....   64
 Basis Dimension        Dim             ....  162

ORBITAL ENERGIES
----------------

  NO   OCC          E(Eh)            E(eV)
   0   2.0000     -91.940253     -2501.8215
   1   2.0000     -11.266153      -306.5676
   2   2.0000     -11.233057      -305.6670
   3   2.0000     -11.231927      -305.6363
   4   2.0000     -11.230173      -305.5886
   5   2.0000     -11.229843      -305.5796
   6   2.0000     -11.227983      -305.5290
   7   2.0000      -8.942717      -243.3437
   8   2.0000      -6.624765      -180.2690
   9   2.0000      -6.623279      -180.2286
  10   2.0000      -6.621027      -180.1673
  11   2.0000      -1.128750       -30.7148
  12   2.0000      -1.034665       -28.1547
  13   2.0000      -1.010235       -27.4899
  14   2.0000      -0.926696       -25.2167
  15   2.0000      -0.840554       -22.8726
  16   2.0000      -0.810130       -22.0448
  17   2.0000      -0.758129       -20.6297
  18   2.0000      -0.647647       -17.6234
  19   2.0000      -0.611506       -16.6399
  20   2.0000      -0.607619       -16.5342
  21   2.0000      -0.602584       -16.3972
  22   2.0000      -0.548037       -14.9129
  23   2.0000      -0.533255       -14.5106
  24   2.0000      -0.514223       -13.9927
  25   2.0000      -0.502486       -13.6734
  26   2.0000      -0.490350       -13.3431
  27   2.0000      -0.470711       -12.8087
  28   2.0000      -0.458188       -12.4679
  29   2.0000      -0.437217       -11.8973
  30   2.0000      -0.416184       -11.3249
  31   2.0000      -0.347757        -9.4630
  32   0.0000       0.157994         4.2992
  33   0.0000       0.182935         4.9779
  34   0.0000       0.192526         5.2389
  35   0.0000       0.211717         5.7611
  36   0.0000       0.224424         6.1069

MULLIKEN ATOMIC CHARGES
-----------------------
   0 C :   -0.251897
   1 C :    0.004846
   2 C :   -0.039366
   3 C :   -0.042627
   4 C :   -0.046211
   5 C :    0.025968
   6 S :   -0.079778
   7 H :    0.029726
   8 H :    0.026332
   9 H :    0.026732
  10 H :    0.027148
  11 H :    0.025064
  12 H :    0.029129
  13 H :    0.038217
  14 H :    0.040873
  15 H :    0.025619
  16 H :    0.037028
  17 H :    0.055937
  18 H :    0.067260
Sum of atomic charges:    0.0000000

LOEWDIN ATOMIC CHARGES
----------------------
   0 C :   -0.119421
   1 C :   -0.038284
   2 C :   -0.030913
   3 C :   -0.033259
   4 C :   -0.032684
   5 C :   -0.039451
   6 S :    0.106485
   7 H :    0.022527
   8 H :    0.017401
   9 H :    0.020866
  10 H :    0.017759
  11 H :    0.016750
  12 H :    0.022069
  13 H :    0.019929
  14 H :    0.023501
  15 H :    0.018723
  16 H :    0.020422
  17 H :    0.014725
  18 H :   -0.027145

  Mayer bond orders larger than 0.1
B(  0-C ,  1-C ) :   1.0027 B(  0-C ,  5-C ) :   0.9930 B(  0-C ,  6-S ) :   1.0384
B(  0-C , 17-H ) :   0.9568 B(  1-C ,  2-C ) :   1.0511 B(  1-C , 13-H ) :   0.9606
B(  1-C , 14-H ) :   0.9684 B(  2-C ,  3-C ) :   1.0433 B(  2-C ,  7-H ) :   0.9718
B(  2-C ,  8-H ) :   0.9637 B(  3-C ,  4-C ) :   1.0434 B(  3-C ,  9-H ) :   0.9727
B(  3-C , 10-H ) :   0.9644 B(  4-C ,  5-C ) :   1.0437 B(  4-C , 11-H ) :   0.9637
B(  4-C , 12-H ) :   0.9719 B(  5-C , 15-H ) :   0.9701 B(  5-C , 16-H ) :   0.9614
B(  6-S , 18-H ) :   0.9775

E(0)                                       ...   -631.754034628
E(0)                                       ...   -631.754034628
E(CORR)(strong-pairs)                      ...     -1.074772315
E(CORR)(weak-pairs)                        ...     -0.000438429
E(CORR)(corrected)                         ...     -1.075210744
E(TOT)                                     ...   -632.829245372
E(CCSD(T))                                 ...   -632.862866798
FINAL SINGLE POINT ENERGY      -632.862866797750

DIPOLE MOMENT
-------------
                                X             Y             Z
Electronic contribution:      8.52330      -0.85952      -0.45106
Nuclear contribution   :     -9.18099       1.15659       0.71148
                        -----------------------------------------
Total Dipole Moment    :     -0.65769       0.29707       0.26042
                        -----------------------------------------
Magnitude (a.u.)       :      0.76722
Magnitude (Debye)      :      1.95011

Rotational constants in cm-1:     0.140193     0.045995     0.037027
Rotational constants in MHz :  4202.869630  1378.901693  1110.055717

                             ****ORCA TERMINATED NORMALLY****
TOTAL RUN TIME: 0 days 0 hours 3 minutes 40 seconds 745 msec
