                         Program Version 4.1.x  -  STABLE  -
|  1> ! RHF DLPNO-CCSD(T) cc-pVDZ RIJK cc-pVTZ/JK cc-pVDZ/C
|  2> ! KDIIS SOSCF TightSCF TightPNO
|  3>
|  4> %pal nprocs 4 end
|  5>
|  6> %maxcore 8000
|  7>
|  8> %scf maxiter 300
|  9>      shift shift 0.2 erroff 0.1 end
| 10> end
| 11>
| 12> * xyzfile 0 1 cyclooctane_BC.xyz
| 13>
| 14>
| 15>                          ****END OF INPUT****

CARTESIAN COORDINATES (ANGSTROEM)
---------------------------------
  C     -1.197740   -1.329220   -0.318160
  C     -1.944400   -0.000090   -0.085850
  C     -1.197860    1.329130   -0.318120
  C     -0.013380    1.618220    0.635780
  C      1.394020    1.315850    0.075540
  C      1.586560    0.000060   -0.695020
  C      1.394160   -1.315720    0.075590
  C     -0.013240   -1.618240    0.635770
  H     -0.863380   -1.391530   -1.363150
  H     -1.940500   -2.128950   -0.202910
  H     -0.027140   -2.681070    0.908580
  H     -0.170910   -1.078010    1.576530
  H     -2.834100   -0.000100   -0.730710
  H     -2.325300   -0.000110    0.946670
  H      1.668320   -2.131710   -0.607940
  H      2.118490   -1.362000    0.901390
  H     -0.863540    1.391520   -1.363100
  H     -1.940690    2.128780   -0.202790
  H     -0.027380    2.681030    0.908670
  H     -0.170960    1.077910    1.576510
  H      0.933190    0.000010   -1.577040
  H      2.608740    0.000120   -1.097080
  H      1.668050    2.131870   -0.608040
  H      2.118400    1.362260    0.901290

 Total Charge           Charge          ....    0
 Multiplicity           Mult            ....    1
 Number of Electrons    NEL             ....   64
 Basis Dimension        Dim             ....  192

ORBITAL ENERGIES
----------------

  NO   OCC          E(Eh)            E(eV)
   0   2.0000     -11.220660      -305.3297
   1   2.0000     -11.219734      -305.3045
   2   2.0000     -11.219732      -305.3044
   3   2.0000     -11.219613      -305.3012
   4   2.0000     -11.219518      -305.2986
   5   2.0000     -11.218374      -305.2675
   6   2.0000     -11.218367      -305.2673
   7   2.0000     -11.217865      -305.2536
   8   2.0000      -1.098113       -29.8812
   9   2.0000      -1.036537       -28.2056
  10   2.0000      -1.034596       -28.1528
  11   2.0000      -0.917645       -24.9704
  12   2.0000      -0.913983       -24.8707
  13   2.0000      -0.792176       -21.5562
  14   2.0000      -0.790274       -21.5044
  15   2.0000      -0.734892       -19.9974
  16   2.0000      -0.641316       -17.4511
  17   2.0000      -0.627424       -17.0731
  18   2.0000      -0.594772       -16.1846
  19   2.0000      -0.588382       -16.0107
  20   2.0000      -0.571511       -15.5516
  21   2.0000      -0.565426       -15.3860
  22   2.0000      -0.548870       -14.9355
  23   2.0000      -0.506334       -13.7781
  24   2.0000      -0.484159       -13.1746
  25   2.0000      -0.480370       -13.0715
  26   2.0000      -0.467677       -12.7261
  27   2.0000      -0.464159       -12.6304
  28   2.0000      -0.459150       -12.4941
  29   2.0000      -0.432826       -11.7778
  30   2.0000      -0.425294       -11.5728
  31   2.0000      -0.417019       -11.3477
  32   0.0000       0.175868         4.7856
  33   0.0000       0.194698         5.2980
  34   0.0000       0.203730         5.5438
  35   0.0000       0.209580         5.7030
  36   0.0000       0.229641         6.2489

MULLIKEN ATOMIC CHARGES
-----------------------
   0 C :   -0.047266
   1 C :   -0.036876
   2 C :   -0.047255
   3 C :   -0.054916
   4 C :   -0.024366
   5 C :   -0.068308
   6 C :   -0.024349
   7 C :   -0.054922
   8 H :    0.021469
   9 H :    0.024660
  10 H :    0.023113
  11 H :    0.022776
  12 H :    0.019816
  13 H :    0.022114
  14 H :    0.023781
  15 H :    0.019118
  16 H :    0.021466
  17 H :    0.024658
  18 H :    0.023113
  19 H :    0.022773
  20 H :    0.023484
  21 H :    0.023022
  22 H :    0.023781
  23 H :    0.019116
Sum of atomic charges:   -0.0000000

LOEWDIN ATOMIC CHARGES
----------------------
   0 C :   -0.035804
   1 C :   -0.034781
   2 C :   -0.035801
   3 C :   -0.038442
   4 C :   -0.034379
   5 C :   -0.042589
   6 C :   -0.034376
   7 C :   -0.038439
   8 H :    0.014789
   9 H :    0.022302
  10 H :    0.021228
  11 H :    0.013793
  12 H :    0.020999
  13 H :    0.016016
  14 H :    0.020073
  15 H :    0.017980
  16 H :    0.014787
  17 H :    0.022302
  18 H :    0.021228
  19 H :    0.013794
  20 H :    0.013936
  21 H :    0.023332
  22 H :    0.020074
  23 H :    0.017979

  Mayer bond orders larger than 0.1
B(  0-C ,  1-C ) :   1.0502 B(  0-C ,  7-C ) :   1.0196 B(  0-C ,  8-H ) :   0.9682
B(  0-C ,  9-H ) :   0.9725 B(  1-C ,  2-C ) :   1.0502 B(  1-C , 12-H ) :   0.9708
B(  1-C , 13-H ) :   0.9629 B(  2-C ,  3-C ) :   1.0196 B(  2-C , 16-H ) :   0.9682
B(  2-C , 17-H ) :   0.9725 B(  3-C ,  4-C ) :   1.0490 B(  3-C , 18-H ) :   0.9745
B(  3-C , 19-H ) :   0.9702 B(  4-C ,  5-C ) :   1.0487 B(  4-C , 22-H ) :   0.9664
B(  4-C , 23-H ) :   0.9668 B(  5-C ,  6-C ) :   1.0487 B(  5-C , 20-H ) :   0.9624
B(  5-C , 21-H ) :   0.9694 B(  6-C ,  7-C ) :   1.0490 B(  6-C , 14-H ) :   0.9664
B(  6-C , 15-H ) :   0.9668 B(  7-C , 10-H ) :   0.9745 B(  7-C , 11-H ) :   0.9702

E(0)                                       ...   -312.277258645
E(0)                                       ...   -312.277258645
E(CORR)(strong-pairs)                      ...     -1.250952038
E(CORR)(weak-pairs)                        ...     -0.000566848
E(CORR)(corrected)                         ...     -1.251518885
E(TOT)                                     ...   -313.528777530
E(CCSD(T))                                 ...   -313.567249865
FINAL SINGLE POINT ENERGY      -313.567249865273

DIPOLE MOMENT
-------------
                                X             Y             Z
Electronic contribution:      0.04024      -0.00005       0.02745
Nuclear contribution   :     -0.05218       0.00003      -0.03549
                        -----------------------------------------
Total Dipole Moment    :     -0.01194      -0.00001      -0.00805
                        -----------------------------------------
Magnitude (a.u.)       :      0.01440
Magnitude (Debye)      :      0.03659

Rotational constants in cm-1:     0.074615     0.070796     0.043047
Rotational constants in MHz :  2236.902774  2122.422482  1290.524869

                             ****ORCA TERMINATED NORMALLY****
TOTAL RUN TIME: 0 days 0 hours 3 minutes 44 seconds 430 msec
