                         Program Version 4.1.x  -  STABLE  -
|  1> ! RHF DLPNO-CCSD(T) cc-pVDZ RIJK cc-pVTZ/JK cc-pVDZ/C
|  2> ! KDIIS SOSCF TightSCF TightPNO
|  3>
|  4> %pal nprocs 4 end
|  5>
|  6> %maxcore 8000
|  7>
|  8> %scf maxiter 300
|  9>      shift shift 0.2 erroff 0.1 end
| 10> end
| 11>
| 12> * xyzfile 0 1 cyclohexene_boat.xyz
| 13>
| 14>
| 15>                          ****END OF INPUT****

CARTESIAN COORDINATES (ANGSTROEM)
---------------------------------
  C     -0.768250   -1.226750   -0.191760
  C     -1.403160    0.081950    0.343870
  C     -0.680500    1.297990   -0.180280
  C      0.659490    1.308650   -0.180730
  C      1.401870    0.104460    0.343350
  C      0.787670   -1.214810   -0.190730
  H      1.217250    2.168830   -0.544630
  H     -1.252140    2.149160   -0.543830
  H     -2.468080    0.110620    0.089430
  H     -1.353130    0.079800    1.444080
  H      1.352800    0.102330    1.443600
  H      2.466010    0.150070    0.088070
  H      1.177240   -2.053470    0.397780
  H      1.147080   -1.364240   -1.214860
  H     -1.145630   -2.072400    0.394670
  H     -1.124130   -1.379630   -1.216620

 Total Charge           Charge          ....    0
 Multiplicity           Mult            ....    1
 Number of Electrons    NEL             ....   46
 Basis Dimension        Dim             ....  134

ORBITAL ENERGIES
----------------

  NO   OCC          E(Eh)            E(eV)
   0   2.0000     -11.226513      -305.4890
   1   2.0000     -11.226502      -305.4887
   2   2.0000     -11.223915      -305.4183
   3   2.0000     -11.223805      -305.4153
   4   2.0000     -11.223369      -305.4034
   5   2.0000     -11.222219      -305.3721
   6   2.0000      -1.113467       -30.2990
   7   2.0000      -0.999126       -27.1876
   8   2.0000      -0.995277       -27.0829
   9   2.0000      -0.845213       -22.9994
  10   2.0000      -0.808043       -21.9880
  11   2.0000      -0.687455       -18.7066
  12   2.0000      -0.664625       -18.0854
  13   2.0000      -0.637158       -17.3380
  14   2.0000      -0.553411       -15.0591
  15   2.0000      -0.550670       -14.9845
  16   2.0000      -0.547743       -14.9048
  17   2.0000      -0.523561       -14.2468
  18   2.0000      -0.522432       -14.2161
  19   2.0000      -0.454486       -12.3672
  20   2.0000      -0.449856       -12.2412
  21   2.0000      -0.432325       -11.7642
  22   2.0000      -0.337959        -9.1963
  23   0.0000       0.171698         4.6721
  24   0.0000       0.176533         4.8037
  25   0.0000       0.208337         5.6691
  26   0.0000       0.222666         6.0591
  27   0.0000       0.227624         6.1940

MULLIKEN ATOMIC CHARGES
-----------------------
   0 C :   -0.038468
   1 C :   -0.019017
   2 C :   -0.087077
   3 C :   -0.087092
   4 C :   -0.019104
   5 C :   -0.038414
   6 H :    0.018571
   7 H :    0.018565
   8 H :    0.029952
   9 H :    0.041135
  10 H :    0.041173
  11 H :    0.029963
  12 H :    0.023348
  13 H :    0.031573
  14 H :    0.023334
  15 H :    0.031557
Sum of atomic charges:    0.0000000

LOEWDIN ATOMIC CHARGES
----------------------
   0 C :   -0.027411
   1 C :   -0.036403
   2 C :   -0.041291
   3 C :   -0.041292
   4 C :   -0.036403
   5 C :   -0.027413
   6 H :    0.019215
   7 H :    0.019215
   8 H :    0.023007
   9 H :    0.025088
  10 H :    0.025105
  11 H :    0.023011
  12 H :    0.018137
  13 H :    0.019655
  14 H :    0.018133
  15 H :    0.019646

  Mayer bond orders larger than 0.1
B(  0-C ,  1-C ) :   1.0505 B(  0-C ,  5-C ) :   1.0309 B(  0-C , 14-H ) :   0.9714
B(  0-C , 15-H ) :   0.9707 B(  1-C ,  2-C ) :   1.0438 B(  1-C ,  8-H ) :   0.9716
B(  1-C ,  9-H ) :   0.9529 B(  2-C ,  3-C ) :   1.9463 B(  2-C ,  7-H ) :   0.9819
B(  3-C ,  4-C ) :   1.0437 B(  3-C ,  6-H ) :   0.9819 B(  4-C ,  5-C ) :   1.0505
B(  4-C , 10-H ) :   0.9529 B(  4-C , 11-H ) :   0.9716 B(  5-C , 12-H ) :   0.9714
B(  5-C , 13-H ) :   0.9708

E(0)                                       ...   -233.025770542
E(0)                                       ...   -233.025770542
E(CORR)(strong-pairs)                      ...     -0.899538823
E(CORR)(weak-pairs)                        ...     -0.000322284
E(CORR)(corrected)                         ...     -0.899861107
E(TOT)                                     ...   -233.925631649
E(CCSD(T))                                 ...   -233.955380506
FINAL SINGLE POINT ENERGY      -233.955380506369

DIPOLE MOMENT
-------------
                                X             Y             Z
Electronic contribution:     -0.01742       2.12807      -0.32497
Nuclear contribution   :      0.01816      -2.21792       0.35514
                        -----------------------------------------
Total Dipole Moment    :      0.00074      -0.08985       0.03017
                        -----------------------------------------
Magnitude (a.u.)       :      0.09479
Magnitude (Debye)      :      0.24093

Rotational constants in cm-1:     0.153895     0.151602     0.086218
Rotational constants in MHz :  4613.657771  4544.920645  2584.750552

                             ****ORCA TERMINATED NORMALLY****
TOTAL RUN TIME: 0 days 0 hours 2 minutes 1 seconds 805 msec
