                         Program Version 4.1.x  -  STABLE  -
|  1> ! RHF DLPNO-CCSD(T) cc-pVDZ RIJK cc-pVTZ/JK cc-pVDZ/C
|  2> ! KDIIS SOSCF TightSCF TightPNO
|  3>
|  4> %pal nprocs 4 end
|  5>
|  6> %maxcore 8000
|  7>
|  8> %scf maxiter 300
|  9>      shift shift 0.2 erroff 0.1 end
| 10> end
| 11>
| 12> * xyzfile 0 1 cyclohexanethiol_ax.xyz
| 13>
| 14>
| 15>                          ****END OF INPUT****

CARTESIAN COORDINATES (ANGSTROEM)
---------------------------------
  C      0.692580    0.016620    0.818160
  C     -0.174770    1.286180    0.742570
  C     -1.169720    1.270600   -0.428320
  C     -2.038590    0.002630   -0.409870
  C     -1.176280   -1.269780   -0.387760
  C     -0.180600   -1.252230    0.784500
  S      1.951050   -0.091600   -0.556730
  H     -1.801920    2.165760   -0.383640
  H     -0.616160    1.319680   -1.374180
  H     -2.707710   -0.009420   -1.278870
  H     -2.684170    0.017140    0.481190
  H     -0.630320   -1.356770   -1.336050
  H     -1.812640   -2.159860   -0.311530
  H     -0.734270    1.350890    1.688770
  H      0.460770    2.178760    0.698400
  H      0.453180   -2.146330    0.771590
  H     -0.742870   -1.280220    1.729090
  H      1.269240    0.022490    1.748080
  H      2.614290    1.039320   -0.240800

 Total Charge           Charge          ....    0
 Multiplicity           Mult            ....    1
 Number of Electrons    NEL             ....   64
 Basis Dimension        Dim             ....  162

ORBITAL ENERGIES
----------------

  NO   OCC          E(Eh)            E(eV)
   0   2.0000     -91.939825     -2501.8098
   1   2.0000     -11.268189      -306.6230
   2   2.0000     -11.233538      -305.6801
   3   2.0000     -11.232787      -305.6597
   4   2.0000     -11.224918      -305.4455
   5   2.0000     -11.224061      -305.4222
   6   2.0000     -11.222862      -305.3896
   7   2.0000      -8.942393      -243.3349
   8   2.0000      -6.624442      -180.2602
   9   2.0000      -6.622963      -180.2200
  10   2.0000      -6.620740      -180.1595
  11   2.0000      -1.125878       -30.6367
  12   2.0000      -1.028748       -27.9937
  13   2.0000      -1.007923       -27.4270
  14   2.0000      -0.929576       -25.2951
  15   2.0000      -0.837550       -22.7909
  16   2.0000      -0.818693       -22.2778
  17   2.0000      -0.731510       -19.9054
  18   2.0000      -0.657402       -17.8888
  19   2.0000      -0.619087       -16.8462
  20   2.0000      -0.607571       -16.5329
  21   2.0000      -0.585650       -15.9363
  22   2.0000      -0.541656       -14.7392
  23   2.0000      -0.533774       -14.5247
  24   2.0000      -0.530379       -14.4323
  25   2.0000      -0.500780       -13.6269
  26   2.0000      -0.482007       -13.1161
  27   2.0000      -0.470403       -12.8003
  28   2.0000      -0.439165       -11.9503
  29   2.0000      -0.435835       -11.8597
  30   2.0000      -0.420309       -11.4372
  31   2.0000      -0.347230        -9.4486
  32   0.0000       0.155148         4.2218
  33   0.0000       0.186050         5.0627
  34   0.0000       0.204182         5.5561
  35   0.0000       0.212331         5.7778
  36   0.0000       0.217787         5.9263

MULLIKEN ATOMIC CHARGES
-----------------------
   0 C :   -0.220307
   1 C :    0.013219
   2 C :   -0.037789
   3 C :   -0.047588
   4 C :   -0.043017
   5 C :   -0.002566
   6 S :   -0.096641
   7 H :    0.025054
   8 H :    0.041727
   9 H :    0.026034
  10 H :    0.020413
  11 H :    0.041507
  12 H :    0.027106
  13 H :    0.028495
  14 H :    0.025683
  15 H :    0.041018
  16 H :    0.032352
  17 H :    0.055944
  18 H :    0.069357
Sum of atomic charges:    0.0000000

LOEWDIN ATOMIC CHARGES
----------------------
   0 C :   -0.110692
   1 C :   -0.039651
   2 C :   -0.033502
   3 C :   -0.032942
   4 C :   -0.034129
   5 C :   -0.038069
   6 S :    0.096848
   7 H :    0.020297
   8 H :    0.019518
   9 H :    0.020823
  10 H :    0.014648
  11 H :    0.019396
  12 H :    0.021332
  13 H :    0.020700
  14 H :    0.018468
  15 H :    0.022899
  16 H :    0.022316
  17 H :    0.018599
  18 H :   -0.026858

  Mayer bond orders larger than 0.1
B(  0-C ,  1-C ) :   1.0110 B(  0-C ,  5-C ) :   1.0225 B(  0-C ,  6-S ) :   1.0110
B(  0-C , 17-H ) :   0.9691 B(  1-C ,  2-C ) :   1.0397 B(  1-C , 13-H ) :   0.9589
B(  1-C , 14-H ) :   0.9710 B(  2-C ,  3-C ) :   1.0438 B(  2-C ,  7-H ) :   0.9723
B(  2-C ,  8-H ) :   0.9625 B(  3-C ,  4-C ) :   1.0426 B(  3-C ,  9-H ) :   0.9729
B(  3-C , 10-H ) :   0.9656 B(  4-C ,  5-C ) :   1.0386 B(  4-C , 11-H ) :   0.9645
B(  4-C , 12-H ) :   0.9725 B(  5-C , 15-H ) :   0.9697 B(  5-C , 16-H ) :   0.9635
B(  6-S , 18-H ) :   0.9774

E(0)                                       ...   -631.751745503
E(0)                                       ...   -631.751745503
E(CORR)(strong-pairs)                      ...     -1.075484486
E(CORR)(weak-pairs)                        ...     -0.000450127
E(CORR)(corrected)                         ...     -1.075934613
E(TOT)                                     ...   -632.827680116
E(CCSD(T))                                 ...   -632.861394851
FINAL SINGLE POINT ENERGY      -632.861394850684

DIPOLE MOMENT
-------------
                                X             Y             Z
Electronic contribution:      6.86724      -0.88857      -1.78981
Nuclear contribution   :     -7.23192       1.18341       2.28477
                        -----------------------------------------
Total Dipole Moment    :     -0.36468       0.29483       0.49496
                        -----------------------------------------
Magnitude (a.u.)       :      0.68184
Magnitude (Debye)      :      1.73309

Rotational constants in cm-1:     0.106337     0.056732     0.048433
Rotational constants in MHz :  3187.913732  1700.782862  1451.990373

                             ****ORCA TERMINATED NORMALLY****
TOTAL RUN TIME: 0 days 0 hours 3 minutes 41 seconds 832 msec
