                         Program Version 4.1.x  -  STABLE  -
|  1> ! RHF DLPNO-CCSD(T) cc-pVDZ RIJK cc-pVTZ/JK cc-pVDZ/C
|  2> ! KDIIS SOSCF TightSCF TightPNO
|  3>
|  4> %pal nprocs 4 end
|  5>
|  6> %maxcore 8000
|  7>
|  8> %scf maxiter 300
|  9>      shift shift 0.2 erroff 0.1 end
| 10> end
| 11>
| 12> * xyzfile 0 1 cyclohexylmethylketone_eq.xyz
| 13>
| 14>
| 15>                          ****END OF INPUT****

CARTESIAN COORDINATES (ANGSTROEM)
---------------------------------
  C     -0.476380   -1.307800    0.063070
  C      0.348960   -0.043670    0.346930
  C     -0.258020    1.189280   -0.372400
  C     -1.741200    1.375980   -0.013490
  C     -2.560230    0.105900   -0.287920
  C     -1.955970   -1.111890    0.427670
  C      1.825700   -0.215700   -0.009550
  O      2.239840   -1.210140   -0.582910
  C      2.775360    0.914480    0.359470
  H      0.301770    2.097050   -0.119600
  H     -0.160110    1.046660   -1.458230
  H     -2.151760    2.224880   -0.574040
  H     -1.822010    1.635980    1.052120
  H     -2.580120   -0.084230   -1.370900
  H     -3.601740    0.254050    0.022720
  H      0.317540    0.168410    1.429130
  H     -2.522170   -2.017640    0.178780
  H     -2.051060   -0.976030    1.515360
  H     -0.384480   -1.557400   -1.001470
  H     -0.052220   -2.157170    0.609320
  H      3.795760    0.529350    0.406550
  H      2.737860    1.688410   -0.417010
  H      2.504620    1.389220    1.307940

 Total Charge           Charge          ....    0
 Multiplicity           Mult            ....    1
 Number of Electrons    NEL             ....   70
 Basis Dimension        Dim             ....  196

ORBITAL ENERGIES
----------------

  NO   OCC          E(Eh)            E(eV)
   0   2.0000     -20.542978      -559.0028
   1   2.0000     -11.329318      -308.2864
   2   2.0000     -11.241435      -305.8950
   3   2.0000     -11.238769      -305.8224
   4   2.0000     -11.238731      -305.8214
   5   2.0000     -11.231517      -305.6251
   6   2.0000     -11.226407      -305.4861
   7   2.0000     -11.225004      -305.4479
   8   2.0000     -11.222133      -305.3698
   9   2.0000      -1.377537       -37.4847
  10   2.0000      -1.124860       -30.6090
  11   2.0000      -1.037053       -28.2196
  12   2.0000      -1.008343       -27.4384
  13   2.0000      -0.986689       -26.8492
  14   2.0000      -0.859836       -23.3973
  15   2.0000      -0.836833       -22.7714
  16   2.0000      -0.767763       -20.8919
  17   2.0000      -0.727016       -19.7831
  18   2.0000      -0.662323       -18.0227
  19   2.0000      -0.635496       -17.2927
  20   2.0000      -0.616286       -16.7700
  21   2.0000      -0.612111       -16.6564
  22   2.0000      -0.596851       -16.2411
  23   2.0000      -0.585433       -15.9304
  24   2.0000      -0.575255       -15.6535
  25   2.0000      -0.539387       -14.6775
  26   2.0000      -0.529741       -14.4150
  27   2.0000      -0.515508       -14.0277
  28   2.0000      -0.497286       -13.5318
  29   2.0000      -0.486724       -13.2444
  30   2.0000      -0.473579       -12.8867
  31   2.0000      -0.459892       -12.5143
  32   2.0000      -0.451932       -12.2977
  33   2.0000      -0.432776       -11.7764
  34   2.0000      -0.394980       -10.7479
  35   0.0000       0.156350         4.2545
  36   0.0000       0.170763         4.6467
  37   0.0000       0.189508         5.1568
  38   0.0000       0.195127         5.3097
  39   0.0000       0.215098         5.8531

MULLIKEN ATOMIC CHARGES
-----------------------
   0 C :    0.028685
   1 C :   -0.228090
   2 C :   -0.019172
   3 C :   -0.028557
   4 C :   -0.041265
   5 C :   -0.033054
   6 C :    0.184279
   7 O :   -0.345273
   8 C :   -0.013240
   9 H :    0.030003
  10 H :    0.035641
  11 H :    0.027954
  12 H :    0.023734
  13 H :    0.026751
  14 H :    0.025334
  15 H :    0.033649
  16 H :    0.027717
  17 H :    0.020535
  18 H :    0.038292
  19 H :    0.034565
  20 H :    0.063107
  21 H :    0.065073
  22 H :    0.043332
Sum of atomic charges:   -0.0000000

LOEWDIN ATOMIC CHARGES
----------------------
   0 C :   -0.018904
   1 C :   -0.057872
   2 C :   -0.023117
   3 C :   -0.030159
   4 C :   -0.032953
   5 C :   -0.032171
   6 C :    0.021187
   7 O :   -0.100531
   8 C :   -0.060298
   9 H :    0.018697
  10 H :    0.020488
  11 H :    0.021678
  12 H :    0.016969
  13 H :    0.017664
  14 H :    0.020323
  15 H :    0.024736
  16 H :    0.021898
  17 H :    0.015291
  18 H :    0.023322
  19 H :    0.025032
  20 H :    0.038285
  21 H :    0.041492
  22 H :    0.028942

  Mayer bond orders larger than 0.1
B(  0-C ,  1-C ) :   1.0187 B(  0-C ,  5-C ) :   1.0529 B(  0-C , 18-H ) :   0.9588
B(  0-C , 19-H ) :   0.9667 B(  1-C ,  2-C ) :   1.0049 B(  1-C ,  6-C ) :   0.9684
B(  1-C , 15-H ) :   0.9371 B(  2-C ,  3-C ) :   1.0565 B(  2-C ,  9-H ) :   0.9668
B(  2-C , 10-H ) :   0.9603 B(  3-C ,  4-C ) :   1.0463 B(  3-C , 11-H ) :   0.9718
B(  3-C , 12-H ) :   0.9624 B(  4-C ,  5-C ) :   1.0432 B(  4-C , 13-H ) :   0.9638
B(  4-C , 14-H ) :   0.9726 B(  5-C , 16-H ) :   0.9721 B(  5-C , 17-H ) :   0.9617
B(  6-C ,  7-O ) :   2.0907 B(  6-C ,  8-C ) :   1.0323 B(  8-C , 20-H ) :   0.9732
B(  8-C , 21-H ) :   0.9600 B(  8-C , 22-H ) :   0.9719

E(0)                                       ...   -386.002348838
E(0)                                       ...   -386.002348838
E(CORR)(strong-pairs)                      ...     -1.394045627
E(CORR)(weak-pairs)                        ...     -0.000861807
E(CORR)(corrected)                         ...     -1.394907434
E(TOT)                                     ...   -387.397256271
E(CCSD(T))                                 ...   -387.441619967
FINAL SINGLE POINT ENERGY      -387.441619967318

DIPOLE MOMENT
-------------
                                X             Y             Z
Electronic contribution:      5.35619      -3.40659      -1.13670
Nuclear contribution   :     -5.86784       4.39868       1.63704
                        -----------------------------------------
Total Dipole Moment    :     -0.51166       0.99209       0.50034
                        -----------------------------------------
Magnitude (a.u.)       :      1.22326
Magnitude (Debye)      :      3.10929

Rotational constants in cm-1:     0.101467     0.035651     0.028781
Rotational constants in MHz :  3041.902484  1068.782164   862.834456

                             ****ORCA TERMINATED NORMALLY****
TOTAL RUN TIME: 0 days 0 hours 5 minutes 49 seconds 552 msec
