                         Program Version 4.1.x  -  STABLE  -
|  1> ! RHF DLPNO-CCSD(T) cc-pVDZ RIJK cc-pVTZ/JK cc-pVDZ/C
|  2> ! KDIIS SOSCF TightSCF TightPNO
|  3>
|  4> %pal nprocs 4 end
|  5>
|  6> %maxcore 8000
|  7>
|  8> %scf maxiter 300
|  9>      shift shift 0.2 erroff 0.1 end
| 10> end
| 11>
| 12> * xyzfile 0 1 cyclohexane_ch.xyz
| 13>
| 14>
| 15>                          ****END OF INPUT****

CARTESIAN COORDINATES (ANGSTROEM)
---------------------------------
  C      1.418430    0.380170    0.228410
  C      1.038650   -1.038010   -0.228330
  C     -0.379960   -1.418350    0.228260
  C     -1.418430   -0.380180   -0.228410
  C     -1.038660    1.038010    0.228300
  C      0.379980    1.418350   -0.228230
  H     -0.398830   -1.487530    1.326130
  H     -0.646680   -2.413030   -0.150500
  H     -1.487870   -0.398680   -1.326240
  H     -1.766530    1.766170   -0.151150
  H      1.766560   -1.766180    0.151020
  H      0.398870    1.487560   -1.326090
  H      2.413010    0.646440   -0.150820
  H      1.487820    0.398640    1.326250
  H     -1.089880    1.089270    1.326120
  H     -2.413010   -0.646460    0.150860
  H      0.646690    2.413040    0.150550
  H      1.089790   -1.089190   -1.326170

 Total Charge           Charge          ....    0
 Multiplicity           Mult            ....    1
 Number of Electrons    NEL             ....   48
 Basis Dimension        Dim             ....  144

ORBITAL ENERGIES
----------------

  NO   OCC          E(Eh)            E(eV)
   0   2.0000     -11.219845      -305.3075
   1   2.0000     -11.219587      -305.3005
   2   2.0000     -11.219569      -305.3000
   3   2.0000     -11.219004      -305.2846
   4   2.0000     -11.218985      -305.2841
   5   2.0000     -11.218689      -305.2760
   6   2.0000      -1.107950       -30.1488
   7   2.0000      -0.997396       -27.1405
   8   2.0000      -0.997246       -27.1365
   9   2.0000      -0.825209       -22.4551
  10   2.0000      -0.825118       -22.4526
  11   2.0000      -0.746105       -20.3026
  12   2.0000      -0.642935       -17.4951
  13   2.0000      -0.603728       -16.4283
  14   2.0000      -0.591585       -16.0978
  15   2.0000      -0.591492       -16.0953
  16   2.0000      -0.521678       -14.1956
  17   2.0000      -0.521581       -14.1929
  18   2.0000      -0.509272       -13.8580
  19   2.0000      -0.477440       -12.9918
  20   2.0000      -0.477387       -12.9904
  21   2.0000      -0.446135       -12.1399
  22   2.0000      -0.424041       -11.5388
  23   2.0000      -0.423945       -11.5361
  24   0.0000       0.179270         4.8782
  25   0.0000       0.199166         5.4196
  26   0.0000       0.217558         5.9201
  27   0.0000       0.217580         5.9206
  28   0.0000       0.260031         7.0758

MULLIKEN ATOMIC CHARGES
-----------------------
   0 C :   -0.044447
   1 C :   -0.044627
   2 C :   -0.044689
   3 C :   -0.044459
   4 C :   -0.044621
   5 C :   -0.044697
   6 H :    0.022202
   7 H :    0.022388
   8 H :    0.022213
   9 H :    0.022375
  10 H :    0.022376
  11 H :    0.022199
  12 H :    0.022372
  13 H :    0.022210
  14 H :    0.022220
  15 H :    0.022375
  16 H :    0.022390
  17 H :    0.022219
Sum of atomic charges:    0.0000000

LOEWDIN ATOMIC CHARGES
----------------------
   0 C :   -0.034251
   1 C :   -0.034229
   2 C :   -0.034209
   3 C :   -0.034250
   4 C :   -0.034229
   5 C :   -0.034211
   6 H :    0.015533
   7 H :    0.018683
   8 H :    0.015539
   9 H :    0.018699
  10 H :    0.018698
  11 H :    0.015531
  12 H :    0.018700
  13 H :    0.015539
  14 H :    0.015534
  15 H :    0.018702
  16 H :    0.018686
  17 H :    0.015535

  Mayer bond orders larger than 0.1
B(  0-C ,  1-C ) :   1.0433 B(  0-C ,  5-C ) :   1.0433 B(  0-C , 12-H ) :   0.9730
B(  0-C , 13-H ) :   0.9646 B(  1-C ,  2-C ) :   1.0432 B(  1-C , 10-H ) :   0.9731
B(  1-C , 17-H ) :   0.9646 B(  2-C ,  3-C ) :   1.0433 B(  2-C ,  6-H ) :   0.9646
B(  2-C ,  7-H ) :   0.9731 B(  3-C ,  4-C ) :   1.0433 B(  3-C ,  8-H ) :   0.9646
B(  3-C , 15-H ) :   0.9730 B(  4-C ,  5-C ) :   1.0432 B(  4-C ,  9-H ) :   0.9731
B(  4-C , 14-H ) :   0.9646 B(  5-C , 11-H ) :   0.9646 B(  5-C , 16-H ) :   0.9731

E(0)                                       ...   -234.223580748
E(0)                                       ...   -234.223580748
E(CORR)(strong-pairs)                      ...     -0.934312236
E(CORR)(weak-pairs)                        ...     -0.000357600
E(CORR)(corrected)                         ...     -0.934669836
E(TOT)                                     ...   -235.158250583
E(CCSD(T))                                 ...   -235.186549379
FINAL SINGLE POINT ENERGY      -235.186549378630

DIPOLE MOMENT
-------------
                                X             Y             Z
Electronic contribution:      0.00006      -0.00006       0.00003
Nuclear contribution   :     -0.00006       0.00006      -0.00003
                        -----------------------------------------
Total Dipole Moment    :     -0.00000      -0.00000      -0.00001
                        -----------------------------------------
Magnitude (a.u.)       :      0.00001
Magnitude (Debye)      :      0.00002

Rotational constants in cm-1:     0.142554     0.142504     0.081246
Rotational constants in MHz :  4273.660287  4272.155002  2435.702047

                             ****ORCA TERMINATED NORMALLY****
TOTAL RUN TIME: 0 days 0 hours 2 minutes 22 seconds 316 msec
