                         Program Version 4.1.x  -  STABLE  -
|  1> ! RHF DLPNO-CCSD(T) cc-pVDZ RIJK cc-pVTZ/JK cc-pVDZ/C
|  2> ! KDIIS SOSCF TightSCF TightPNO
|  3>
|  4> %pal nprocs 4 end
|  5>
|  6> %maxcore 8000
|  7>
|  8> %scf maxiter 300
|  9>      shift shift 0.2 erroff 0.1 end
| 10> end
| 11>
| 12> * xyzfile 0 1 cyclohexylphosphine_eq.xyz
| 13>
| 14>
| 15>                          ****END OF INPUT****

CARTESIAN COORDINATES (ANGSTROEM)
---------------------------------
  C      0.613370   -0.000010    0.363010
  C     -0.094910   -1.268640   -0.151680
  C     -1.592060   -1.268480    0.204230
  C     -2.294910   -0.000000   -0.302950
  C     -1.592050    1.268490    0.204210
  C     -0.094900    1.268650   -0.151670
  P      2.426310    0.000000   -0.175830
  H     -2.072580   -2.163140   -0.210850
  H     -1.703410   -1.332190    1.296370
  H     -3.347600    0.000000    0.005490
  H     -2.291500   -0.000010   -1.402700
  H     -1.703430    1.332210    1.296340
  H     -2.072590    2.163130   -0.210890
  H      0.017150   -1.326090   -1.244390
  H      0.386700   -2.164830    0.259490
  H      0.386700    2.164830    0.259520
  H      0.017210    1.326100   -1.244360
  H      0.571690    0.000000    1.460120
  H      2.874840    1.038770    0.691260
  H      2.874850   -1.038820    0.691190

 Total Charge           Charge          ....    0
 Multiplicity           Mult            ....    1
 Number of Electrons    NEL             ....   64
 Basis Dimension        Dim             ....  167

ORBITAL ENERGIES
----------------

  NO   OCC          E(Eh)            E(eV)
   0   2.0000     -79.936661     -2175.1871
   1   2.0000     -11.238694      -305.8204
   2   2.0000     -11.229659      -305.5745
   3   2.0000     -11.229628      -305.5737
   4   2.0000     -11.226167      -305.4795
   5   2.0000     -11.226060      -305.4766
   6   2.0000     -11.224623      -305.4375
   7   2.0000      -7.478141      -203.4906
   8   2.0000      -5.372140      -146.1834
   9   2.0000      -5.371918      -146.1773
  10   2.0000      -5.370203      -146.1306
  11   2.0000      -1.118258       -30.4293
  12   2.0000      -1.012328       -27.5468
  13   2.0000      -1.005728       -27.3673
  14   2.0000      -0.861825       -23.4515
  15   2.0000      -0.835421       -22.7330
  16   2.0000      -0.783215       -21.3124
  17   2.0000      -0.748276       -20.3616
  18   2.0000      -0.640479       -17.4283
  19   2.0000      -0.605005       -16.4630
  20   2.0000      -0.600819       -16.3491
  21   2.0000      -0.595596       -16.2070
  22   2.0000      -0.539908       -14.6917
  23   2.0000      -0.528013       -14.3680
  24   2.0000      -0.501161       -13.6373
  25   2.0000      -0.492018       -13.3885
  26   2.0000      -0.488084       -13.2814
  27   2.0000      -0.483935       -13.1686
  28   2.0000      -0.455128       -12.3847
  29   2.0000      -0.431526       -11.7424
  30   2.0000      -0.413031       -11.2391
  31   2.0000      -0.353669        -9.6238
  32   0.0000       0.155238         4.2242
  33   0.0000       0.181441         4.9373
  34   0.0000       0.189611         5.1596
  35   0.0000       0.194490         5.2923
  36   0.0000       0.214525         5.8375

MULLIKEN ATOMIC CHARGES
-----------------------
   0 C :   -0.312226
   1 C :   -0.003535
   2 C :   -0.031278
   3 C :   -0.043670
   4 C :   -0.031277
   5 C :   -0.003529
   6 P :    0.176903
   7 H :    0.026214
   8 H :    0.023963
   9 H :    0.024988
  10 H :    0.025204
  11 H :    0.023963
  12 H :    0.026214
  13 H :    0.033132
  14 H :    0.029340
  15 H :    0.029340
  16 H :    0.033130
  17 H :    0.042652
  18 H :   -0.034763
  19 H :   -0.034763
Sum of atomic charges:   -0.0000000

LOEWDIN ATOMIC CHARGES
----------------------
   0 C :   -0.146792
   1 C :   -0.040738
   2 C :   -0.031692
   3 C :   -0.033388
   4 C :   -0.031691
   5 C :   -0.040735
   6 P :    0.257119
   7 H :    0.020660
   8 H :    0.016510
   9 H :    0.020074
  10 H :    0.016935
  11 H :    0.016510
  12 H :    0.020660
  13 H :    0.017224
  14 H :    0.019478
  15 H :    0.019477
  16 H :    0.017222
  17 H :    0.012314
  18 H :   -0.064573
  19 H :   -0.064574

  Mayer bond orders larger than 0.1
B(  0-C ,  1-C ) :   1.0038 B(  0-C ,  5-C ) :   1.0038 B(  0-C ,  6-P ) :   1.0194
B(  0-C , 17-H ) :   0.9550 B(  1-C ,  2-C ) :   1.0513 B(  1-C , 13-H ) :   0.9602
B(  1-C , 14-H ) :   0.9699 B(  2-C ,  3-C ) :   1.0444 B(  2-C ,  7-H ) :   0.9715
B(  2-C ,  8-H ) :   0.9635 B(  3-C ,  4-C ) :   1.0444 B(  3-C ,  9-H ) :   0.9728
B(  3-C , 10-H ) :   0.9642 B(  4-C ,  5-C ) :   1.0513 B(  4-C , 11-H ) :   0.9635
B(  4-C , 12-H ) :   0.9715 B(  5-C , 15-H ) :   0.9699 B(  5-C , 16-H ) :   0.9602
B(  6-P , 18-H ) :   0.9708 B(  6-P , 19-H ) :   0.9708

E(0)                                       ...   -575.532723100
E(0)                                       ...   -575.532723100
E(CORR)(strong-pairs)                      ...     -1.071269835
E(CORR)(weak-pairs)                        ...     -0.000443382
E(CORR)(corrected)                         ...     -1.071713217
E(TOT)                                     ...   -576.604436317
E(CCSD(T))                                 ...   -576.638254665
FINAL SINGLE POINT ENERGY      -576.638254665030

DIPOLE MOMENT
-------------
                                X             Y             Z
Electronic contribution:      8.23603       0.00004      -1.54668
Nuclear contribution   :     -8.66486      -0.00005       1.87734
                        -----------------------------------------
Total Dipole Moment    :     -0.42883      -0.00001       0.33066
                        -----------------------------------------
Magnitude (a.u.)       :      0.54151
Magnitude (Debye)      :      1.37641

Rotational constants in cm-1:     0.137697     0.044832     0.036286
Rotational constants in MHz :  4128.058003  1344.028096  1087.813710

                             ****ORCA TERMINATED NORMALLY****
TOTAL RUN TIME: 0 days 0 hours 3 minutes 24 seconds 689 msec
