                         Program Version 4.1.x  -  STABLE  -
|  1> ! RHF DLPNO-CCSD(T) cc-pVDZ RIJK cc-pVTZ/JK cc-pVDZ/C
|  2> ! KDIIS SOSCF TightSCF TightPNO
|  3>
|  4> %pal nprocs 4 end
|  5>
|  6> %maxcore 8000
|  7>
|  8> %scf maxiter 300
|  9>      shift shift 0.2 erroff 0.1 end
| 10> end
| 11>
| 12> * xyzfile 0 1 cyclooctane_tcc.xyz
| 13>
| 14>
| 15>                          ****END OF INPUT****

CARTESIAN COORDINATES (ANGSTROEM)
---------------------------------
  C      0.735010   -1.704970    0.300130
  C      1.755090   -0.697740   -0.263270
  C      1.733300    0.748380    0.263820
  C      0.684370    1.725030   -0.300640
  C     -0.735030    1.704980    0.300120
  C     -1.755100    0.697740   -0.263270
  C     -1.733300   -0.748380    0.263820
  C     -0.684360   -1.725030   -0.300640
  H      1.160630   -2.704390    0.140430
  H      0.667900   -1.585680    1.391800
  H     -1.080780   -2.736560   -0.142120
  H     -0.620600   -1.602640   -1.392170
  H      1.684490   -0.685570   -1.361320
  H      2.752550   -1.098110   -0.037860
  H     -2.718570   -1.178310    0.039280
  H     -1.662230   -0.734110    1.361820
  H      2.718570    1.178310    0.039250
  H      1.662250    0.734130    1.361810
  H      1.080790    2.736550   -0.142110
  H      0.620630    1.602620   -1.392170
  H     -1.684480    0.685520   -1.361320
  H     -2.752560    1.098110   -0.037890
  H     -1.160640    2.704400    0.140410
  H     -0.667920    1.585710    1.391800

 Total Charge           Charge          ....    0
 Multiplicity           Mult            ....    1
 Number of Electrons    NEL             ....   64
 Basis Dimension        Dim             ....  192

ORBITAL ENERGIES
----------------

  NO   OCC          E(Eh)            E(eV)
   0   2.0000     -11.219476      -305.2975
   1   2.0000     -11.219332      -305.2936
   2   2.0000     -11.219322      -305.2933
   3   2.0000     -11.218943      -305.2830
   4   2.0000     -11.218943      -305.2830
   5   2.0000     -11.218528      -305.2717
   6   2.0000     -11.218521      -305.2715
   7   2.0000     -11.218341      -305.2666
   8   2.0000      -1.094076       -29.7713
   9   2.0000      -1.039060       -28.2743
  10   2.0000      -1.038473       -28.2583
  11   2.0000      -0.916564       -24.9410
  12   2.0000      -0.916536       -24.9402
  13   2.0000      -0.785000       -21.3609
  14   2.0000      -0.782926       -21.3045
  15   2.0000      -0.753755       -20.5107
  16   2.0000      -0.638983       -17.3876
  17   2.0000      -0.611594       -16.6423
  18   2.0000      -0.610178       -16.6038
  19   2.0000      -0.576076       -15.6758
  20   2.0000      -0.575453       -15.6589
  21   2.0000      -0.554848       -15.0982
  22   2.0000      -0.534204       -14.5364
  23   2.0000      -0.533986       -14.5305
  24   2.0000      -0.500953       -13.6316
  25   2.0000      -0.460322       -12.5260
  26   2.0000      -0.460229       -12.5235
  27   2.0000      -0.460074       -12.5193
  28   2.0000      -0.459079       -12.4922
  29   2.0000      -0.450504       -12.2588
  30   2.0000      -0.417969       -11.3735
  31   2.0000      -0.417741       -11.3673
  32   0.0000       0.170096         4.6285
  33   0.0000       0.189835         5.1657
  34   0.0000       0.206056         5.6071
  35   0.0000       0.207919         5.6578
  36   0.0000       0.238361         6.4861

MULLIKEN ATOMIC CHARGES
-----------------------
   0 C :   -0.040092
   1 C :   -0.039543
   2 C :   -0.039554
   3 C :   -0.040145
   4 C :   -0.040101
   5 C :   -0.039536
   6 C :   -0.039558
   7 C :   -0.040147
   8 H :    0.022621
   9 H :    0.017401
  10 H :    0.022635
  11 H :    0.017401
  12 H :    0.017651
  13 H :    0.021981
  14 H :    0.021993
  15 H :    0.017653
  16 H :    0.021993
  17 H :    0.017653
  18 H :    0.022634
  19 H :    0.017403
  20 H :    0.017651
  21 H :    0.021981
  22 H :    0.022622
  23 H :    0.017403
Sum of atomic charges:   -0.0000000

LOEWDIN ATOMIC CHARGES
----------------------
   0 C :   -0.037759
   1 C :   -0.037804
   2 C :   -0.037804
   3 C :   -0.037761
   4 C :   -0.037759
   5 C :   -0.037805
   6 C :   -0.037803
   7 C :   -0.037762
   8 H :    0.022813
   9 H :    0.014992
  10 H :    0.022817
  11 H :    0.014998
  12 H :    0.015014
  13 H :    0.022735
  14 H :    0.022743
  15 H :    0.015017
  16 H :    0.022744
  17 H :    0.015016
  18 H :    0.022816
  19 H :    0.014998
  20 H :    0.015015
  21 H :    0.022734
  22 H :    0.022812
  23 H :    0.014993

  Mayer bond orders larger than 0.1
B(  0-C ,  1-C ) :   1.0410 B(  0-C ,  7-C ) :   1.0381 B(  0-C ,  8-H ) :   0.9729
B(  0-C ,  9-H ) :   0.9652 B(  1-C ,  2-C ) :   1.0435 B(  1-C , 12-H ) :   0.9644
B(  1-C , 13-H ) :   0.9721 B(  2-C ,  3-C ) :   1.0409 B(  2-C , 16-H ) :   0.9721
B(  2-C , 17-H ) :   0.9644 B(  3-C ,  4-C ) :   1.0381 B(  3-C , 18-H ) :   0.9730
B(  3-C , 19-H ) :   0.9652 B(  4-C ,  5-C ) :   1.0410 B(  4-C , 22-H ) :   0.9729
B(  4-C , 23-H ) :   0.9652 B(  5-C ,  6-C ) :   1.0435 B(  5-C , 20-H ) :   0.9644
B(  5-C , 21-H ) :   0.9721 B(  6-C ,  7-C ) :   1.0409 B(  6-C , 14-H ) :   0.9721
B(  6-C , 15-H ) :   0.9644 B(  7-C , 10-H ) :   0.9730 B(  7-C , 11-H ) :   0.9652

E(0)                                       ...   -312.276719268
E(0)                                       ...   -312.276719268
E(CORR)(strong-pairs)                      ...     -1.248958855
E(CORR)(weak-pairs)                        ...     -0.000523476
E(CORR)(corrected)                         ...     -1.249482330
E(TOT)                                     ...   -313.526201598
E(CCSD(T))                                 ...   -313.564395235
FINAL SINGLE POINT ENERGY      -313.564395235351

DIPOLE MOMENT
-------------
                                X             Y             Z
Electronic contribution:     -0.00006       0.00003       0.00040
Nuclear contribution   :      0.00006      -0.00003      -0.00040
                        -----------------------------------------
Total Dipole Moment    :     -0.00000       0.00000      -0.00000
                        -----------------------------------------
Magnitude (a.u.)       :      0.00000
Magnitude (Debye)      :      0.00001

Rotational constants in cm-1:     0.071171     0.069760     0.038984
Rotational constants in MHz :  2133.654899  2091.354060  1168.720002

                             ****ORCA TERMINATED NORMALLY****
TOTAL RUN TIME: 0 days 0 hours 3 minutes 40 seconds 647 msec
