                         Program Version 4.1.x  -  STABLE  -
|  1> ! RHF DLPNO-CCSD(T) cc-pVDZ RIJK cc-pVTZ/JK cc-pVDZ/C
|  2> ! KDIIS SOSCF TightSCF TightPNO
|  3>
|  4> %pal nprocs 4 end
|  5>
|  6> %maxcore 8000
|  7>
|  8> %scf maxiter 300
|  9>      shift shift 0.2 erroff 0.1 end
| 10> end
| 11>
| 12> * xyzfile 0 1 cyclohexylmethylketone_ax.xyz
| 13>
| 14>
| 15>                          ****END OF INPUT****

CARTESIAN COORDINATES (ANGSTROEM)
---------------------------------
  C     -0.288800    1.339020    0.678450
  C      0.379240   -0.043000    0.895500
  C     -0.678100   -1.163600    0.909920
  C     -1.599370   -1.129000   -0.321780
  C     -2.243790    0.252160   -0.518690
  C     -1.181540    1.361860   -0.572610
  C      1.522890   -0.316760   -0.090230
  O      1.602750   -1.360450   -0.717500
  C      2.595970    0.751520   -0.240190
  H     -0.182290   -2.136760    0.978020
  H     -1.284330   -1.043680    1.818710
  H     -2.376500   -1.896260   -0.218260
  H     -1.015280   -1.392250   -1.211460
  H     -2.933410    0.458320    0.313590
  H     -2.848120    0.261760   -1.434050
  H      0.878680   -0.012850    1.878000
  H     -1.659270    2.344930   -0.666460
  H     -0.564310    1.229360   -1.473410
  H     -0.908130    1.553330    1.559880
  H      0.462970    2.134780    0.632790
  H      3.496030    0.299350   -0.660640
  H      2.245700    1.528910   -0.930220
  H      2.827260    1.241350    0.711270

 Total Charge           Charge          ....    0
 Multiplicity           Mult            ....    1
 Number of Electrons    NEL             ....   70
 Basis Dimension        Dim             ....  196

ORBITAL ENERGIES
----------------

  NO   OCC          E(Eh)            E(eV)
   0   2.0000     -20.544056      -559.0322
   1   2.0000     -11.330791      -308.3265
   2   2.0000     -11.242562      -305.9257
   3   2.0000     -11.239426      -305.8403
   4   2.0000     -11.237376      -305.7845
   5   2.0000     -11.229198      -305.5620
   6   2.0000     -11.223133      -305.3970
   7   2.0000     -11.222851      -305.3893
   8   2.0000     -11.216986      -305.2297
   9   2.0000      -1.379109       -37.5275
  10   2.0000      -1.122402       -30.5421
  11   2.0000      -1.034299       -28.1447
  12   2.0000      -1.006445       -27.3867
  13   2.0000      -0.985953       -26.8291
  14   2.0000      -0.859245       -23.3812
  15   2.0000      -0.834254       -22.7012
  16   2.0000      -0.778536       -21.1850
  17   2.0000      -0.705414       -19.1953
  18   2.0000      -0.659887       -17.9564
  19   2.0000      -0.645533       -17.5659
  20   2.0000      -0.623427       -16.9643
  21   2.0000      -0.612896       -16.6778
  22   2.0000      -0.589454       -16.0399
  23   2.0000      -0.583516       -15.8783
  24   2.0000      -0.560676       -15.2568
  25   2.0000      -0.534203       -14.5364
  26   2.0000      -0.529185       -14.3999
  27   2.0000      -0.517690       -14.0871
  28   2.0000      -0.512637       -13.9496
  29   2.0000      -0.486466       -13.2374
  30   2.0000      -0.480445       -13.0736
  31   2.0000      -0.457539       -12.4503
  32   2.0000      -0.432873       -11.7791
  33   2.0000      -0.430487       -11.7141
  34   2.0000      -0.396168       -10.7803
  35   0.0000       0.148984         4.0541
  36   0.0000       0.170621         4.6428
  37   0.0000       0.192744         5.2448
  38   0.0000       0.206577         5.6212
  39   0.0000       0.222400         6.0518

MULLIKEN ATOMIC CHARGES
-----------------------
   0 C :   -0.010866
   1 C :   -0.222602
   2 C :    0.036765
   3 C :   -0.046100
   4 C :   -0.041291
   5 C :   -0.043157
   6 C :    0.187954
   7 O :   -0.349288
   8 C :   -0.014644
   9 H :    0.042635
  10 H :    0.019304
  11 H :    0.023298
  12 H :    0.046320
  13 H :    0.020109
  14 H :    0.025303
  15 H :    0.041100
  16 H :    0.027425
  17 H :    0.026945
  18 H :    0.033204
  19 H :    0.025564
  20 H :    0.063256
  21 H :    0.062717
  22 H :    0.046049
Sum of atomic charges:   -0.0000000

LOEWDIN ATOMIC CHARGES
----------------------
   0 C :   -0.024852
   1 C :   -0.056891
   2 C :   -0.019374
   3 C :   -0.031176
   4 C :   -0.033157
   5 C :   -0.034216
   6 C :    0.020811
   7 O :   -0.101934
   8 C :   -0.060245
   9 H :    0.026736
  10 H :    0.017157
  11 H :    0.020428
  12 H :    0.022691
  13 H :    0.014764
  14 H :    0.020419
  15 H :    0.033495
  16 H :    0.021260
  17 H :    0.015928
  18 H :    0.022552
  19 H :    0.017468
  20 H :    0.037840
  21 H :    0.040265
  22 H :    0.030031

  Mayer bond orders larger than 0.1
B(  0-C ,  1-C ) :   1.0293 B(  0-C ,  5-C ) :   1.0365 B(  0-C , 18-H ) :   0.9637
B(  0-C , 19-H ) :   0.9691 B(  1-C ,  2-C ) :   1.0458 B(  1-C ,  6-C ) :   0.9398
B(  1-C , 15-H ) :   0.9453 B(  2-C ,  3-C ) :   1.0392 B(  2-C ,  9-H ) :   0.9632
B(  2-C , 10-H ) :   0.9636 B(  3-C ,  4-C ) :   1.0426 B(  3-C , 11-H ) :   0.9721
B(  3-C , 12-H ) :   0.9642 B(  4-C ,  5-C ) :   1.0434 B(  4-C , 13-H ) :   0.9646
B(  4-C , 14-H ) :   0.9728 B(  5-C , 16-H ) :   0.9728 B(  5-C , 17-H ) :   0.9638
B(  6-C ,  7-O ) :   2.0706 B(  6-C ,  8-C ) :   1.0292 B(  8-C , 20-H ) :   0.9734
B(  8-C , 21-H ) :   0.9599 B(  8-C , 22-H ) :   0.9706

E(0)                                       ...   -386.000397879
E(0)                                       ...   -386.000397879
E(CORR)(strong-pairs)                      ...     -1.395213651
E(CORR)(weak-pairs)                        ...     -0.000774150
E(CORR)(corrected)                         ...     -1.395987801
E(TOT)                                     ...   -387.396385681
E(CCSD(T))                                 ...   -387.440915525
FINAL SINGLE POINT ENERGY      -387.440915525007

DIPOLE MOMENT
-------------
                                X             Y             Z
Electronic contribution:      3.85826      -3.72620      -0.77332
Nuclear contribution   :     -3.99579       4.73868       1.34014
                        -----------------------------------------
Total Dipole Moment    :     -0.13753       1.01248       0.56682
                        -----------------------------------------
Magnitude (a.u.)       :      1.16847
Magnitude (Debye)      :      2.97000

Rotational constants in cm-1:     0.082535     0.043971     0.036253
Rotational constants in MHz :  2474.330100  1318.223638  1086.824626

                             ****ORCA TERMINATED NORMALLY****
TOTAL RUN TIME: 0 days 0 hours 6 minutes 0 seconds 271 msec
