                         Program Version 4.1.x  -  STABLE  -
|  1> ! RHF DLPNO-CCSD(T) cc-pVDZ RIJK cc-pVTZ/JK cc-pVDZ/C
|  2> ! KDIIS SOSCF TightSCF TightPNO
|  3>
|  4> %pal nprocs 4 end
|  5>
|  6> %maxcore 8000
|  7>
|  8> %scf maxiter 300
|  9>      shift shift 0.2 erroff 0.1 end
| 10> end
| 11>
| 12> * xyzfile 0 1 cyclohexylphosphine_ax.xyz
| 13>
| 14>
| 15>                          ****END OF INPUT****

CARTESIAN COORDINATES (ANGSTROEM)
---------------------------------
  C     -0.678370    0.000020    0.810470
  C      0.201460   -1.269460    0.760700
  C      1.199910   -1.269610   -0.409820
  C      2.066050   -0.000010   -0.408020
  C      1.199930    1.269600   -0.409810
  C      0.201480    1.269460    0.760700
  P     -1.963310   -0.000020   -0.593790
  H      1.834210   -2.162730   -0.351060
  H      0.656050   -1.335440   -1.361540
  H      2.739960   -0.000010   -1.273540
  H      2.706370   -0.000010    0.486880
  H      0.656050    1.335450   -1.361540
  H      1.834240    2.162720   -0.351060
  H      0.765570   -1.322550    1.704110
  H     -0.425540   -2.169600    0.728960
  H     -0.425490    2.169630    0.728980
  H      0.765580    1.322500    1.704110
  H     -1.234090    0.000020    1.754450
  H     -2.783060   -1.038290   -0.063490
  H     -2.782870    1.038560   -0.063780

 Total Charge           Charge          ....    0
 Multiplicity           Mult            ....    1
 Number of Electrons    NEL             ....   64
 Basis Dimension        Dim             ....  167

ORBITAL ENERGIES
----------------

  NO   OCC          E(Eh)            E(eV)
   0   2.0000     -79.935986     -2175.1688
   1   2.0000     -11.240096      -305.8585
   2   2.0000     -11.229851      -305.5798
   3   2.0000     -11.229823      -305.5790
   4   2.0000     -11.223233      -305.3997
   5   2.0000     -11.222921      -305.3912
   6   2.0000     -11.222387      -305.3767
   7   2.0000      -7.477510      -203.4734
   8   2.0000      -5.371537      -146.1670
   9   2.0000      -5.371273      -146.1598
  10   2.0000      -5.369603      -146.1143
  11   2.0000      -1.115906       -30.3653
  12   2.0000      -1.009497       -27.4698
  13   2.0000      -1.004397       -27.3310
  14   2.0000      -0.860712       -23.4212
  15   2.0000      -0.833176       -22.6719
  16   2.0000      -0.798719       -21.7342
  17   2.0000      -0.719019       -19.5655
  18   2.0000      -0.650033       -17.6883
  19   2.0000      -0.613846       -16.7036
  20   2.0000      -0.602895       -16.4056
  21   2.0000      -0.577506       -15.7147
  22   2.0000      -0.531891       -14.4735
  23   2.0000      -0.531293       -14.4572
  24   2.0000      -0.526878       -14.3371
  25   2.0000      -0.496635       -13.5141
  26   2.0000      -0.476306       -12.9609
  27   2.0000      -0.466625       -12.6975
  28   2.0000      -0.442253       -12.0343
  29   2.0000      -0.430208       -11.7066
  30   2.0000      -0.426515       -11.6061
  31   2.0000      -0.349099        -9.4995
  32   0.0000       0.153164         4.1678
  33   0.0000       0.173699         4.7266
  34   0.0000       0.190039         5.1712
  35   0.0000       0.206109         5.6085
  36   0.0000       0.223517         6.0822

MULLIKEN ATOMIC CHARGES
-----------------------
   0 C :   -0.279003
   1 C :   -0.004820
   2 C :   -0.044428
   3 C :   -0.042661
   4 C :   -0.044442
   5 C :   -0.004806
   6 P :    0.156558
   7 H :    0.025821
   8 H :    0.037641
   9 H :    0.024825
  10 H :    0.021086
  11 H :    0.037638
  12 H :    0.025823
  13 H :    0.028643
  14 H :    0.027676
  15 H :    0.027678
  16 H :    0.028640
  17 H :    0.042807
  18 H :   -0.032337
  19 H :   -0.032339
Sum of atomic charges:   -0.0000000

LOEWDIN ATOMIC CHARGES
----------------------
   0 C :   -0.141062
   1 C :   -0.039256
   2 C :   -0.035337
   3 C :   -0.032686
   4 C :   -0.035340
   5 C :   -0.039259
   6 P :    0.248303
   7 H :    0.020556
   8 H :    0.017421
   9 H :    0.020227
  10 H :    0.014995
  11 H :    0.017423
  12 H :    0.020557
  13 H :    0.019459
  14 H :    0.018269
  15 H :    0.018271
  16 H :    0.019459
  17 H :    0.016192
  18 H :   -0.064095
  19 H :   -0.064096

  Mayer bond orders larger than 0.1
B(  0-C ,  1-C ) :   1.0208 B(  0-C ,  5-C ) :   1.0208 B(  0-C ,  6-P ) :   0.9971
B(  0-C , 17-H ) :   0.9657 B(  1-C ,  2-C ) :   1.0385 B(  1-C , 13-H ) :   0.9640
B(  1-C , 14-H ) :   0.9720 B(  2-C ,  3-C ) :   1.0427 B(  2-C ,  7-H ) :   0.9727
B(  2-C ,  8-H ) :   0.9643 B(  3-C ,  4-C ) :   1.0427 B(  3-C ,  9-H ) :   0.9730
B(  3-C , 10-H ) :   0.9655 B(  4-C ,  5-C ) :   1.0385 B(  4-C , 11-H ) :   0.9643
B(  4-C , 12-H ) :   0.9727 B(  5-C , 15-H ) :   0.9720 B(  5-C , 16-H ) :   0.9640
B(  6-P , 18-H ) :   0.9710 B(  6-P , 19-H ) :   0.9710

E(0)                                       ...   -575.529361063
E(0)                                       ...   -575.529361063
E(CORR)(strong-pairs)                      ...     -1.072234391
E(CORR)(weak-pairs)                        ...     -0.000450678
E(CORR)(corrected)                         ...     -1.072685069
E(TOT)                                     ...   -576.602046132
E(CCSD(T))                                 ...   -576.635982625
FINAL SINGLE POINT ENERGY      -576.635982624898

DIPOLE MOMENT
-------------
                                X             Y             Z
Electronic contribution:     -6.19284      -0.00025      -2.50546
Nuclear contribution   :      6.39229       0.00029       2.94634
                        -----------------------------------------
Total Dipole Moment    :      0.19946       0.00004       0.44088
                        -----------------------------------------
Magnitude (a.u.)       :      0.48390
Magnitude (Debye)      :      1.22998

Rotational constants in cm-1:     0.105334     0.054858     0.047016
Rotational constants in MHz :  3157.843130  1644.604745  1409.502208

                             ****ORCA TERMINATED NORMALLY****
TOTAL RUN TIME: 0 days 0 hours 3 minutes 58 seconds 980 msec
