                         Program Version 4.1.x  -  STABLE  -
|  1> ! RHF DLPNO-CCSD(T) cc-pVDZ RIJK cc-pVTZ/JK cc-pVDZ/C
|  2> ! KDIIS SOSCF TightSCF TightPNO
|  3>
|  4> %pal nprocs 4 end
|  5>
|  6> %maxcore 8000
|  7>
|  8> %scf maxiter 300
|  9>      shift shift 0.2 erroff 0.1 end
| 10> end
| 11>
| 12> * xyzfile 0 1 diMe_sulfone.xyz
| 13>
| 14>
| 15>                          ****END OF INPUT****

CARTESIAN COORDINATES (ANGSTROEM)
---------------------------------
  C      1.402650   -0.901650    0.000000
  S     -0.000010    0.183070    0.000000
  C     -1.402610   -0.901720    0.000000
  O     -0.000010    0.903990    1.244820
  O     -0.000010    0.903990   -1.244820
  H      1.389250   -1.510390   -0.893760
  H      1.389250   -1.510390    0.893760
  H     -2.278050   -0.265590    0.000000
  H     -1.389200   -1.510460   -0.893770
  H     -1.389200   -1.510460    0.893770
  H      2.278060   -0.265480    0.000000

 Total Charge           Charge          ....    0
 Multiplicity           Mult            ....    1
 Number of Electrons    NEL             ....   50
 Basis Dimension        Dim             ....  104

ORBITAL ENERGIES
----------------

  NO   OCC          E(Eh)            E(eV)
   0   2.0000     -92.186167     -2508.5131
   1   2.0000     -20.531904      -558.7015
   2   2.0000     -20.531882      -558.7009
   3   2.0000     -11.278474      -306.9029
   4   2.0000     -11.278454      -306.9023
   5   2.0000      -9.163624      -249.3549
   6   2.0000      -6.848836      -186.3663
   7   2.0000      -6.847125      -186.3197
   8   2.0000      -6.846774      -186.3102
   9   2.0000      -1.458766       -39.6950
  10   2.0000      -1.338379       -36.4191
  11   2.0000      -1.075467       -29.2650
  12   2.0000      -1.013933       -27.5905
  13   2.0000      -0.815371       -22.1874
  14   2.0000      -0.691128       -18.8066
  15   2.0000      -0.675646       -18.3853
  16   2.0000      -0.664491       -18.0817
  17   2.0000      -0.616583       -16.7781
  18   2.0000      -0.613572       -16.6961
  19   2.0000      -0.592609       -16.1257
  20   2.0000      -0.581606       -15.8263
  21   2.0000      -0.486204       -13.2303
  22   2.0000      -0.484624       -13.1873
  23   2.0000      -0.454797       -12.3757
  24   2.0000      -0.432120       -11.7586
  25   0.0000       0.155729         4.2376
  26   0.0000       0.201489         5.4828
  27   0.0000       0.203930         5.5492
  28   0.0000       0.211848         5.7647
  29   0.0000       0.249564         6.7910

MULLIKEN ATOMIC CHARGES
-----------------------
   0 C :   -0.163218
   1 S :    1.037158
   2 C :   -0.163230
   3 O :   -0.606176
   4 O :   -0.606176
   5 H :    0.075487
   6 H :    0.075487
   7 H :    0.099840
   8 H :    0.075494
   9 H :    0.075494
  10 H :    0.099840
Sum of atomic charges:    0.0000000

LOEWDIN ATOMIC CHARGES
----------------------
   0 C :   -0.143441
   1 S :    1.073971
   2 C :   -0.143446
   3 O :   -0.505845
   4 O :   -0.505845
   5 H :    0.033367
   6 H :    0.033367
   7 H :    0.045566
   8 H :    0.033371
   9 H :    0.033371
  10 H :    0.045566

  Mayer bond orders larger than 0.1
B(  0-C ,  1-S ) :   0.9503 B(  0-C ,  5-H ) :   0.9656 B(  0-C ,  6-H ) :   0.9656
B(  0-C , 10-H ) :   0.9663 B(  1-S ,  2-C ) :   0.9503 B(  1-S ,  3-O ) :   1.7298
B(  1-S ,  4-O ) :   1.7298 B(  2-C ,  7-H ) :   0.9663 B(  2-C ,  8-H ) :   0.9656
B(  2-C ,  9-H ) :   0.9656

E(0)                                       ...   -626.401959661
E(0)                                       ...   -626.401959661
E(CORR)(strong-pairs)                      ...     -0.838435751
E(CORR)(weak-pairs)                        ...     -0.000243009
E(CORR)(corrected)                         ...     -0.838678759
E(TOT)                                     ...   -627.240638420
E(CCSD(T))                                 ...   -627.264310858
FINAL SINGLE POINT ENERGY      -627.264310857731

DIPOLE MOMENT
-------------
                                X             Y             Z
Electronic contribution:     -0.00012       4.53833       0.00000
Nuclear contribution   :      0.00011      -6.53430       0.00000
                        -----------------------------------------
Total Dipole Moment    :     -0.00001      -1.99598       0.00000
                        -----------------------------------------
Magnitude (a.u.)       :      1.99598
Magnitude (Debye)      :      5.07337

Rotational constants in cm-1:     0.155444     0.142489     0.139149
Rotational constants in MHz :  4660.081758  4271.726520  4171.578078

                             ****ORCA TERMINATED NORMALLY****
TOTAL RUN TIME: 0 days 0 hours 1 minutes 48 seconds 383 msec
