                         Program Version 4.1.x  -  STABLE  -
|  1> ! RHF DLPNO-CCSD(T) cc-pVDZ RIJK cc-pVTZ/JK cc-pVDZ/C
|  2> ! KDIIS SOSCF TightSCF TightPNO
|  3>
|  4> %pal nprocs 4 end
|  5>
|  6> %maxcore 8000
|  7>
|  8> %scf maxiter 300
|  9>      shift shift 0.2 erroff 0.1 end
| 10> end
| 11>
| 12> * xyzfile 0 1 dimethilsulfide_g.xyz
| 13>
| 14>
| 15>                          ****END OF INPUT****

CARTESIAN COORDINATES (ANGSTROEM)
---------------------------------
  C     -1.501890   -0.423640    0.000000
  S     -0.000000    0.553540    0.000000
  C      1.501890   -0.423630    0.000000
  H     -2.388280    0.249270    0.000040
  H     -1.531640   -1.067810   -0.907090
  H     -1.531610   -1.067930    0.907020
  H      1.531430   -1.068160   -0.906860
  H      2.388280    0.249280   -0.000420
  H      1.531820   -1.067580    0.907260

 Total Charge           Charge          ....    0
 Multiplicity           Mult            ....    1
 Number of Electrons    NEL             ....   34
 Basis Dimension        Dim             ....   76

ORBITAL ENERGIES
----------------

  NO   OCC          E(Eh)            E(eV)
   0   2.0000     -91.929690     -2501.5340
   1   2.0000     -11.265760      -306.5569
   2   2.0000     -11.265746      -306.5565
   3   2.0000      -8.934370      -243.1166
   4   2.0000      -6.616705      -180.0497
   5   2.0000      -6.614816      -179.9983
   6   2.0000      -6.612726      -179.9414
   7   2.0000      -1.056713       -28.7546
   8   2.0000      -0.953584       -25.9483
   9   2.0000      -0.796047       -21.6616
  10   2.0000      -0.594290       -16.1714
  11   2.0000      -0.593595       -16.1525
  12   2.0000      -0.573693       -15.6110
  13   2.0000      -0.561423       -15.2771
  14   2.0000      -0.516126       -14.0445
  15   2.0000      -0.404282       -11.0011
  16   2.0000      -0.325889        -8.8679
  17   0.0000       0.170565         4.6413
  18   0.0000       0.196568         5.3489
  19   0.0000       0.224617         6.1121
  20   0.0000       0.237105         6.4520
  21   0.0000       0.245875         6.6906

MULLIKEN ATOMIC CHARGES
-----------------------
   0 C :   -0.161558
   1 S :   -0.115233
   2 C :   -0.161564
   3 H :    0.088024
   4 H :    0.065575
   5 H :    0.065576
   6 H :    0.065572
   7 H :    0.088026
   8 H :    0.065581
Sum of atomic charges:   -0.0000000

LOEWDIN ATOMIC CHARGES
----------------------
   0 C :   -0.171895
   1 S :    0.184605
   2 C :   -0.171899
   3 H :    0.040399
   4 H :    0.019596
   5 H :    0.019599
   6 H :    0.019599
   7 H :    0.040398
   8 H :    0.019598

  Mayer bond orders larger than 0.1
B(  0-C ,  1-S ) :   1.0048 B(  0-C ,  3-H ) :   0.9776 B(  0-C ,  4-H ) :   0.9760
B(  0-C ,  5-H ) :   0.9760 B(  1-S ,  2-C ) :   1.0048 B(  2-C ,  6-H ) :   0.9760
B(  2-C ,  7-H ) :   0.9776 B(  2-C ,  8-H ) :   0.9760

E(0)                                       ...   -476.747107449
E(0)                                       ...   -476.747107449
E(CORR)(strong-pairs)                      ...     -0.478086261
E(CORR)(weak-pairs)                        ...     -0.000072442
E(CORR)(corrected)                         ...     -0.478158704
E(TOT)                                     ...   -477.225266152
E(CCSD(T))                                 ...   -477.238278212
FINAL SINGLE POINT ENERGY      -477.238278212053

DIPOLE MOMENT
-------------
                                X             Y             Z
Electronic contribution:     -0.00000       3.23148       0.00002
Nuclear contribution   :     -0.00000      -3.89522      -0.00004
                        -----------------------------------------
Total Dipole Moment    :     -0.00000      -0.66375      -0.00002
                        -----------------------------------------
Magnitude (a.u.)       :      0.66375
Magnitude (Debye)      :      1.68711

Rotational constants in cm-1:     0.768119     0.214855     0.179771
Rotational constants in MHz : 23027.632279  6441.177745  5389.409697

                             ****ORCA TERMINATED NORMALLY****
TOTAL RUN TIME: 0 days 0 hours 1 minutes 10 seconds 923 msec
