                         Program Version 4.1.x  -  STABLE  -
|  1> ! RHF DLPNO-CCSD(T) cc-pVDZ RIJK cc-pVTZ/JK cc-pVDZ/C
|  2> ! KDIIS SOSCF TightSCF TightPNO
|  3>
|  4> %pal nprocs 4 end
|  5>
|  6> %maxcore 8000
|  7>
|  8> %scf maxiter 300
|  9>      shift shift 0.2 erroff 0.1 end
| 10> end
| 11>
| 12> * xyzfile 0 1 dimethilsulfide_ecl.xyz
| 13>
| 14>
| 15>                          ****END OF INPUT****

CARTESIAN COORDINATES (ANGSTROEM)
---------------------------------
  C     -1.504200    0.421970    0.000000
  S      0.000400   -0.551710    0.000000
  C      1.504070    0.422650    0.000000
  H     -2.104540    0.185700    0.906800
  H     -1.256760    1.507100    0.000000
  H     -2.104540    0.185700   -0.906800
  H      1.535640    1.066620    0.907200
  H      2.388960   -0.252220   -0.000000
  H      1.535650    1.066640   -0.907190

 Total Charge           Charge          ....    0
 Multiplicity           Mult            ....    1
 Number of Electrons    NEL             ....   34
 Basis Dimension        Dim             ....   76

ORBITAL ENERGIES
----------------

  NO   OCC          E(Eh)            E(eV)
   0   2.0000     -91.928750     -2501.5085
   1   2.0000     -11.265461      -306.5488
   2   2.0000     -11.264936      -306.5345
   3   2.0000      -8.933581      -243.0951
   4   2.0000      -6.615950      -180.0292
   5   2.0000      -6.614000      -179.9761
   6   2.0000      -6.611972      -179.9209
   7   2.0000      -1.056140       -28.7390
   8   2.0000      -0.953113       -25.9355
   9   2.0000      -0.796007       -21.6605
  10   2.0000      -0.595267       -16.1981
  11   2.0000      -0.591181       -16.0869
  12   2.0000      -0.571777       -15.5588
  13   2.0000      -0.563746       -15.3403
  14   2.0000      -0.514792       -14.0082
  15   2.0000      -0.403957       -10.9922
  16   2.0000      -0.325014        -8.8441
  17   0.0000       0.171905         4.6778
  18   0.0000       0.195979         5.3329
  19   0.0000       0.216136         5.8813
  20   0.0000       0.245018         6.6673
  21   0.0000       0.246987         6.7208

MULLIKEN ATOMIC CHARGES
-----------------------
   0 C :   -0.164704
   1 S :   -0.118050
   2 C :   -0.160508
   3 H :    0.079774
   4 H :    0.064202
   5 H :    0.079774
   6 H :    0.066342
   7 H :    0.086828
   8 H :    0.066342
Sum of atomic charges:   -0.0000000

LOEWDIN ATOMIC CHARGES
----------------------
   0 C :   -0.172848
   1 S :    0.183104
   2 C :   -0.171756
   3 H :    0.028518
   4 H :    0.025541
   5 H :    0.028518
   6 H :    0.019467
   7 H :    0.039989
   8 H :    0.019468

  Mayer bond orders larger than 0.1
B(  0-C ,  1-S ) :   0.9916 B(  0-C ,  3-H ) :   0.9778 B(  0-C ,  4-H ) :   0.9792
B(  0-C ,  5-H ) :   0.9778 B(  1-S ,  2-C ) :   1.0078 B(  2-C ,  6-H ) :   0.9763
B(  2-C ,  7-H ) :   0.9773 B(  2-C ,  8-H ) :   0.9763

E(0)                                       ...   -476.745150432
E(0)                                       ...   -476.745150432
E(CORR)(strong-pairs)                      ...     -0.478275540
E(CORR)(weak-pairs)                        ...     -0.000070953
E(CORR)(corrected)                         ...     -0.478346493
E(TOT)                                     ...   -477.223496925
E(CCSD(T))                                 ...   -477.236505016
FINAL SINGLE POINT ENERGY      -477.236505016006

DIPOLE MOMENT
-------------
                                X             Y             Z
Electronic contribution:      0.01288      -3.18971      -0.00001
Nuclear contribution   :     -0.00576       3.88140       0.00001
                        -----------------------------------------
Total Dipole Moment    :      0.00712       0.69169       0.00000
                        -----------------------------------------
Magnitude (a.u.)       :      0.69173
Magnitude (Debye)      :      1.75824

Rotational constants in cm-1:     0.771528     0.214221     0.179511
Rotational constants in MHz : 23129.830555  6422.176696  5381.602023

                             ****ORCA TERMINATED NORMALLY****
TOTAL RUN TIME: 0 days 0 hours 1 minutes 11 seconds 246 msec
