                         Program Version 4.1.x  -  STABLE  -
|  1> ! RHF DLPNO-CCSD(T) cc-pVDZ RIJK cc-pVTZ/JK cc-pVDZ/C
|  2> ! KDIIS SOSCF TightSCF TightPNO
|  3>
|  4> %pal nprocs 4 end
|  5>
|  6> %maxcore 8000
|  7>
|  8> %scf maxiter 300
|  9>      shift shift 0.2 erroff 0.1 end
| 10> end
| 11>
| 12> * xyzfile 0 1 dimethylphosphine_ecl.xyz
| 13>
| 14>
| 15>                          ****END OF INPUT****

CARTESIAN COORDINATES (ANGSTROEM)
---------------------------------
  P     -0.000560   -0.563880   -0.094200
  C      1.559570    0.496620    0.033630
  C     -1.556740    0.499370    0.030000
  H     -0.013810   -1.797080    0.643110
  H      2.460350   -0.115620   -0.195010
  H      1.510180    1.342380   -0.688100
  H      1.659380    0.909530    1.062280
  H     -2.197990    0.367650   -0.869970
  H     -2.141250    0.203320    0.929590
  H     -1.285470    1.572120    0.149280

 Total Charge           Charge          ....    0
 Multiplicity           Mult            ....    1
 Number of Electrons    NEL             ....   34
 Basis Dimension        Dim             ....   81

ORBITAL ENERGIES
----------------

  NO   OCC          E(Eh)            E(eV)
   0   2.0000     -79.927075     -2174.9263
   1   2.0000     -11.251430      -306.1670
   2   2.0000     -11.249968      -306.1272
   3   2.0000      -7.468546      -203.2295
   4   2.0000      -5.363820      -145.9570
   5   2.0000      -5.363718      -145.9542
   6   2.0000      -5.361745      -145.9005
   7   2.0000      -0.981732       -26.7143
   8   2.0000      -0.932952       -25.3869
   9   2.0000      -0.744506       -20.2590
  10   2.0000      -0.580892       -15.8069
  11   2.0000      -0.570279       -15.5181
  12   2.0000      -0.553323       -15.0567
  13   2.0000      -0.552236       -15.0271
  14   2.0000      -0.494925       -13.4676
  15   2.0000      -0.464651       -12.6438
  16   2.0000      -0.277760        -7.5582
  17   0.0000       0.169529         4.6131
  18   0.0000       0.181820         4.9476
  19   0.0000       0.187937         5.1140
  20   0.0000       0.226061         6.1514
  21   0.0000       0.248074         6.7504

MULLIKEN ATOMIC CHARGES
-----------------------
   0 P :    0.041336
   1 C :   -0.236436
   2 C :   -0.242348
   3 H :    0.010087
   4 H :    0.075608
   5 H :    0.075627
   6 H :    0.059862
   7 H :    0.084033
   8 H :    0.066269
   9 H :    0.065962
Sum of atomic charges:    0.0000000

LOEWDIN ATOMIC CHARGES
----------------------
   0 P :    0.245852
   1 C :   -0.187305
   2 C :   -0.190348
   3 H :   -0.046485
   4 H :    0.035532
   5 H :    0.035972
   6 H :    0.016066
   7 H :    0.033211
   8 H :    0.026936
   9 H :    0.030567

  Mayer bond orders larger than 0.1
B(  0-P ,  1-C ) :   1.0022 B(  0-P ,  2-C ) :   0.9854 B(  0-P ,  3-H ) :   0.9511
B(  1-C ,  4-H ) :   0.9780 B(  1-C ,  5-H ) :   0.9753 B(  1-C ,  6-H ) :   0.9747
B(  2-C ,  7-H ) :   0.9812 B(  2-C ,  8-H ) :   0.9766 B(  2-C ,  9-H ) :   0.9758

E(0)                                       ...   -420.506269114
E(0)                                       ...   -420.506269114
E(CORR)(strong-pairs)                      ...     -0.475638756
E(CORR)(weak-pairs)                        ...     -0.000070133
E(CORR)(corrected)                         ...     -0.475708889
E(TOT)                                     ...   -420.981978003
E(CCSD(T))                                 ...   -420.995351057
FINAL SINGLE POINT ENERGY      -420.995351057439

DIPOLE MOMENT
-------------
                                X             Y             Z
Electronic contribution:      0.00654      -2.72266      -0.71605
Nuclear contribution   :     -0.00831       3.10702       1.15346
                        -----------------------------------------
Total Dipole Moment    :     -0.00177       0.38436       0.43741
                        -----------------------------------------
Magnitude (a.u.)       :      0.58230
Magnitude (Debye)      :      1.48008

Rotational constants in cm-1:     0.596629     0.199230     0.160623
Rotational constants in MHz : 17886.485414  5972.774175  4815.358428

                             ****ORCA TERMINATED NORMALLY****
TOTAL RUN TIME: 0 days 0 hours 0 minutes 15 seconds 248 msec
