                         Program Version 4.1.x  -  STABLE  -
|  1> ! RHF DLPNO-CCSD(T) cc-pVDZ RIJK cc-pVTZ/JK cc-pVDZ/C
|  2> ! KDIIS SOSCF TightSCF TightPNO
|  3>
|  4> %pal nprocs 4 end
|  5>
|  6> %maxcore 8000
|  7>
|  8> %scf maxiter 300
|  9>      shift shift 0.2 erroff 0.1 end
| 10> end
| 11>
| 12> * xyzfile 0 1 Dimethylether_g.xyz
| 13>
| 14>
| 15>                          ****END OF INPUT****

CARTESIAN COORDINATES (ANGSTROEM)
---------------------------------
  C      1.173270   -0.198530    0.000000
  O      0.000000    0.581830   -0.000000
  C     -1.173270   -0.198530    0.000000
  H      2.031610    0.509900    0.000060
  H      1.209230   -0.823060    0.922050
  H      1.209290   -0.823000   -0.922090
  H     -1.209280   -0.822990    0.922090
  H     -2.031620    0.509900   -0.000050
  H     -1.209230   -0.823070   -0.922030

 Total Charge           Charge          ....    0
 Multiplicity           Mult            ....    1
 Number of Electrons    NEL             ....   26
 Basis Dimension        Dim             ....   72

ORBITAL ENERGIES
----------------

  NO   OCC          E(Eh)            E(eV)
   0   2.0000     -20.548748      -559.1599
   1   2.0000     -11.280341      -306.9537
   2   2.0000     -11.280321      -306.9531
   3   2.0000      -1.370375       -37.2898
   4   2.0000      -0.962106       -26.1802
   5   2.0000      -0.861718       -23.4485
   6   2.0000      -0.656510       -17.8645
   7   2.0000      -0.642183       -17.4747
   8   2.0000      -0.627373       -17.0717
   9   2.0000      -0.547957       -14.9107
  10   2.0000      -0.518741       -14.1157
  11   2.0000      -0.469117       -12.7653
  12   2.0000      -0.417223       -11.3532
  13   0.0000       0.181543         4.9400
  14   0.0000       0.227794         6.1986
  15   0.0000       0.246459         6.7065
  16   0.0000       0.249318         6.7843
  17   0.0000       0.283105         7.7037

MULLIKEN ATOMIC CHARGES
-----------------------
   0 C :    0.150133
   1 O :   -0.476985
   2 C :    0.150137
   3 H :    0.048248
   4 H :    0.020053
   5 H :    0.020057
   6 H :    0.020054
   7 H :    0.048249
   8 H :    0.020053
Sum of atomic charges:   -0.0000000

LOEWDIN ATOMIC CHARGES
----------------------
   0 C :    0.004466
   1 O :   -0.087902
   2 C :    0.004467
   3 H :    0.024937
   4 H :    0.007274
   5 H :    0.007275
   6 H :    0.007274
   7 H :    0.024938
   8 H :    0.007272

  Mayer bond orders larger than 0.1
B(  0-C ,  1-O ) :   0.9769 B(  0-C ,  3-H ) :   0.9928 B(  0-C ,  4-H ) :   0.9797
B(  0-C ,  5-H ) :   0.9797 B(  1-O ,  2-C ) :   0.9769 B(  2-C ,  6-H ) :   0.9797
B(  2-C ,  7-H ) :   0.9928 B(  2-C ,  8-H ) :   0.9797

E(0)                                       ...   -154.073382737
E(0)                                       ...   -154.073382737
E(CORR)(strong-pairs)                      ...     -0.519384412
E(CORR)(weak-pairs)                        ...     -0.000083845
E(CORR)(corrected)                         ...     -0.519468257
E(TOT)                                     ...   -154.592850993
E(CCSD(T))                                 ...   -154.605374918
FINAL SINGLE POINT ENERGY      -154.605374917868

DIPOLE MOMENT
-------------
                                X             Y             Z
Electronic contribution:      0.00000       1.84243      -0.00003
Nuclear contribution   :      0.00000      -2.39877       0.00002
                        -----------------------------------------
Total Dipole Moment    :      0.00000      -0.55634      -0.00000
                        -----------------------------------------
Magnitude (a.u.)       :      0.55634
Magnitude (Debye)      :      1.41410

Rotational constants in cm-1:     1.303112     0.332414     0.296825
Rotational constants in MHz : 39066.313783  9965.526413  8898.594389

                             ****ORCA TERMINATED NORMALLY****
TOTAL RUN TIME: 0 days 0 hours 0 minutes 14 seconds 409 msec
