                         Program Version 4.1.x  -  STABLE  -
|  1> ! RHF DLPNO-CCSD(T) cc-pVDZ RIJK cc-pVTZ/JK cc-pVDZ/C
|  2> ! KDIIS SOSCF TightSCF TightPNO
|  3>
|  4> %pal nprocs 4 end
|  5>
|  6> %maxcore 8000
|  7>
|  8> %scf maxiter 300
|  9>      shift shift 0.2 erroff 0.1 end
| 10> end
| 11>
| 12> * xyzfile 0 1 dimethylphosphine_a.xyz
| 13>
| 14>
| 15>                          ****END OF INPUT****

CARTESIAN COORDINATES (ANGSTROEM)
---------------------------------
  P     -0.000000    0.569470   -0.102470
  C     -1.548450   -0.499510    0.036740
  C      1.548450   -0.499510    0.036740
  H      0.000010    1.758070    0.704860
  H     -2.457170    0.110590   -0.164560
  H     -1.508040   -1.333060   -0.699580
  H     -1.626850   -0.930590    1.059790
  H      2.457180    0.110600   -0.164570
  H      1.626850   -0.930590    1.059790
  H      1.508040   -1.333070   -0.699580

 Total Charge           Charge          ....    0
 Multiplicity           Mult            ....    1
 Number of Electrons    NEL             ....   34
 Basis Dimension        Dim             ....   81

ORBITAL ENERGIES
----------------

  NO   OCC          E(Eh)            E(eV)
   0   2.0000     -79.929030     -2174.9795
   1   2.0000     -11.249897      -306.1253
   2   2.0000     -11.249886      -306.1250
   3   2.0000      -7.470301      -203.2772
   4   2.0000      -5.365395      -145.9998
   5   2.0000      -5.365265      -145.9963
   6   2.0000      -5.363273      -145.9421
   7   2.0000      -0.983269       -26.7561
   8   2.0000      -0.933337       -25.3974
   9   2.0000      -0.745233       -20.2788
  10   2.0000      -0.581374       -15.8200
  11   2.0000      -0.571110       -15.5407
  12   2.0000      -0.554897       -15.0995
  13   2.0000      -0.550826       -14.9887
  14   2.0000      -0.494899       -13.4669
  15   2.0000      -0.465852       -12.6765
  16   2.0000      -0.283131        -7.7044
  17   0.0000       0.171260         4.6602
  18   0.0000       0.186451         5.0736
  19   0.0000       0.188059         5.1174
  20   0.0000       0.233478         6.3533
  21   0.0000       0.239721         6.5231

MULLIKEN ATOMIC CHARGES
-----------------------
   0 P :    0.062036
   1 C :   -0.241298
   2 C :   -0.241307
   3 H :    0.002089
   4 H :    0.076464
   5 H :    0.074466
   6 H :    0.058307
   7 H :    0.076467
   8 H :    0.058308
   9 H :    0.074467
Sum of atomic charges:    0.0000000

LOEWDIN ATOMIC CHARGES
----------------------
   0 P :    0.258357
   1 C :   -0.190879
   2 C :   -0.190883
   3 H :   -0.050763
   4 H :    0.035566
   5 H :    0.035701
   6 H :    0.015815
   7 H :    0.035569
   8 H :    0.015814
   9 H :    0.035702

  Mayer bond orders larger than 0.1
B(  0-P ,  1-C ) :   1.0019 B(  0-P ,  2-C ) :   1.0019 B(  0-P ,  3-H ) :   0.9503
B(  1-C ,  4-H ) :   0.9783 B(  1-C ,  5-H ) :   0.9753 B(  1-C ,  6-H ) :   0.9743
B(  2-C ,  7-H ) :   0.9783 B(  2-C ,  8-H ) :   0.9743 B(  2-C ,  9-H ) :   0.9753

E(0)                                       ...   -420.514025138
E(0)                                       ...   -420.514025138
E(CORR)(strong-pairs)                      ...     -0.474966242
E(CORR)(weak-pairs)                        ...     -0.000068847
E(CORR)(corrected)                         ...     -0.475035089
E(TOT)                                     ...   -420.989060227
E(CCSD(T))                                 ...   -421.002379034
FINAL SINGLE POINT ENERGY      -421.002379033836

DIPOLE MOMENT
-------------
                                X             Y             Z
Electronic contribution:     -0.00002       2.78603      -0.80285
Nuclear contribution   :      0.00002      -3.18015       1.22842
                        -----------------------------------------
Total Dipole Moment    :     -0.00001      -0.39411       0.42557
                        -----------------------------------------
Magnitude (a.u.)       :      0.58003
Magnitude (Debye)      :      1.47432

Rotational constants in cm-1:     0.591571     0.201230     0.161932
Rotational constants in MHz : 17734.856465  6032.718373  4854.606079

                             ****ORCA TERMINATED NORMALLY****
TOTAL RUN TIME: 0 days 0 hours 0 minutes 16 seconds 205 msec
