                         Program Version 4.1.x  -  STABLE  -
|  1> ! RHF DLPNO-CCSD(T) cc-pVDZ RIJK cc-pVTZ/JK cc-pVDZ/C
|  2> ! KDIIS SOSCF TightSCF TightPNO
|  3>
|  4> %pal nprocs 4 end
|  5>
|  6> %maxcore 8000
|  7>
|  8> %scf maxiter 300
|  9>      shift shift 0.2 erroff 0.1 end
| 10> end
| 11>
| 12> * xyzfile 0 1 diMe_sulfone_ts.xyz
| 13>
| 14>
| 15>                          ****END OF INPUT****

CARTESIAN COORDINATES (ANGSTROEM)
---------------------------------
  C     -1.352900    0.974500   -0.004700
  S     -0.008900   -0.190700   -0.000200
  C      1.453400    0.850200    0.008900
  O     -0.058200   -0.912000    1.260200
  O     -0.041200   -0.908300   -1.263200
  H     -1.305500    1.574100   -0.908900
  H     -1.299500    1.586100    0.891200
  H      2.063000    0.549000   -0.836900
  H      1.164900    1.892300   -0.097300
  H      1.968200    0.692000    0.950400
  H     -2.256900    0.371200    0.003000

 Total Charge           Charge          ....    0
 Multiplicity           Mult            ....    1
 Number of Electrons    NEL             ....   50
 Basis Dimension        Dim             ....  104

ORBITAL ENERGIES
----------------

  NO   OCC          E(Eh)            E(eV)
   0   2.0000     -92.187185     -2508.5408
   1   2.0000     -20.534328      -558.7675
   2   2.0000     -20.533966      -558.7576
   3   2.0000     -11.281393      -306.9823
   4   2.0000     -11.280100      -306.9471
   5   2.0000      -9.164194      -249.3704
   6   2.0000      -6.849178      -186.3756
   7   2.0000      -6.847626      -186.3334
   8   2.0000      -6.847383      -186.3268
   9   2.0000      -1.448943       -39.4277
  10   2.0000      -1.332355       -36.2552
  11   2.0000      -1.073251       -29.2046
  12   2.0000      -1.009902       -27.4808
  13   2.0000      -0.816744       -22.2247
  14   2.0000      -0.685708       -18.6591
  15   2.0000      -0.670969       -18.2580
  16   2.0000      -0.660326       -17.9684
  17   2.0000      -0.619078       -16.8460
  18   2.0000      -0.618130       -16.8202
  19   2.0000      -0.588826       -16.0228
  20   2.0000      -0.577304       -15.7092
  21   2.0000      -0.482246       -13.1226
  22   2.0000      -0.481131       -13.0922
  23   2.0000      -0.453830       -12.3493
  24   2.0000      -0.430824       -11.7233
  25   0.0000       0.155939         4.2433
  26   0.0000       0.200459         5.4548
  27   0.0000       0.211748         5.7620
  28   0.0000       0.222691         6.0597
  29   0.0000       0.225009         6.1228

MULLIKEN ATOMIC CHARGES
-----------------------
   0 C :   -0.174183
   1 S :    1.058905
   2 C :   -0.190583
   3 O :   -0.612591
   4 O :   -0.612243
   5 H :    0.079317
   6 H :    0.078958
   7 H :    0.100413
   8 H :    0.071140
   9 H :    0.099275
  10 H :    0.101592
Sum of atomic charges:    0.0000000

LOEWDIN ATOMIC CHARGES
----------------------
   0 C :   -0.145540
   1 S :    1.089438
   2 C :   -0.144131
   3 O :   -0.515538
   4 O :   -0.515193
   5 H :    0.034138
   6 H :    0.034339
   7 H :    0.042989
   8 H :    0.032436
   9 H :    0.041669
  10 H :    0.045392

  Mayer bond orders larger than 0.1
B(  0-C ,  1-S ) :   0.9472 B(  0-C ,  5-H ) :   0.9642 B(  0-C ,  6-H ) :   0.9648
B(  0-C , 10-H ) :   0.9664 B(  1-S ,  2-C ) :   0.9270 B(  1-S ,  3-O ) :   1.7106
B(  1-S ,  4-O ) :   1.7100 B(  2-C ,  7-H ) :   0.9671 B(  2-C ,  8-H ) :   0.9734
B(  2-C ,  9-H ) :   0.9665

E(0)                                       ...   -626.398283780
E(0)                                       ...   -626.398283780
E(CORR)(strong-pairs)                      ...     -0.841440003
E(CORR)(weak-pairs)                        ...     -0.000246388
E(CORR)(corrected)                         ...     -0.841686391
E(TOT)                                     ...   -627.239970171
E(CCSD(T))                                 ...   -627.264202238
FINAL SINGLE POINT ENERGY      -627.264202238434

DIPOLE MOMENT
-------------
                                X             Y             Z
Electronic contribution:     -0.22251      -4.60263      -0.00149
Nuclear contribution   :      0.33216       6.62614       0.00152
                        -----------------------------------------
Total Dipole Moment    :      0.10965       2.02351       0.00002
                        -----------------------------------------
Magnitude (a.u.)       :      2.02648
Magnitude (Debye)      :      5.15090

Rotational constants in cm-1:     0.151792     0.140762     0.137701
Rotational constants in MHz :  4550.618218  4219.948913  4128.180025

                             ****ORCA TERMINATED NORMALLY****
TOTAL RUN TIME: 0 days 0 hours 1 minutes 48 seconds 713 msec
