                         Program Version 4.1.x  -  STABLE  -
|  1> ! RHF DLPNO-CCSD(T) cc-pVDZ RIJK cc-pVTZ/JK cc-pVDZ/C
|  2> ! KDIIS SOSCF TightSCF TightPNO
|  3>
|  4> %pal nprocs 4 end
|  5>
|  6> %maxcore 8000
|  7>
|  8> %scf maxiter 300
|  9>      shift shift 0.2 erroff 0.1 end
| 10> end
| 11>
| 12> * xyzfile 0 1 Dimethylether_ecl.xyz
| 13>
| 14>
| 15>                          ****END OF INPUT****

CARTESIAN COORDINATES (ANGSTROEM)
---------------------------------
  C      1.194090    0.191540    0.000000
  O      0.003480   -0.559000   -0.000000
  C     -1.194130    0.186800   -0.000000
  H      2.042410   -0.529730    0.000000
  H      1.236160    0.815990   -0.922070
  H      1.236160    0.815980    0.922070
  H     -1.772780   -0.091800   -0.909950
  H     -1.772790   -0.091810    0.909950
  H     -0.996820    1.283370    0.000010

 Total Charge           Charge          ....    0
 Multiplicity           Mult            ....    1
 Number of Electrons    NEL             ....   26
 Basis Dimension        Dim             ....   72

ORBITAL ENERGIES
----------------

  NO   OCC          E(Eh)            E(eV)
   0   2.0000     -20.543583      -559.0193
   1   2.0000     -11.281257      -306.9786
   2   2.0000     -11.279914      -306.9421
   3   2.0000      -1.366089       -37.1732
   4   2.0000      -0.963673       -26.2229
   5   2.0000      -0.859644       -23.3921
   6   2.0000      -0.649298       -17.6683
   7   2.0000      -0.642412       -17.4809
   8   2.0000      -0.627136       -17.0652
   9   2.0000      -0.552853       -15.0439
  10   2.0000      -0.520217       -14.1558
  11   2.0000      -0.466743       -12.7007
  12   2.0000      -0.408500       -11.1159
  13   0.0000       0.183127         4.9831
  14   0.0000       0.226947         6.1755
  15   0.0000       0.258329         7.0295
  16   0.0000       0.258809         7.0425
  17   0.0000       0.264229         7.1900

MULLIKEN ATOMIC CHARGES
-----------------------
   0 C :    0.153720
   1 O :   -0.491504
   2 C :    0.156879
   3 H :    0.049607
   4 H :    0.020717
   5 H :    0.020717
   6 H :    0.037214
   7 H :    0.037215
   8 H :    0.015435
Sum of atomic charges:    0.0000000

LOEWDIN ATOMIC CHARGES
----------------------
   0 C :    0.004064
   1 O :   -0.096395
   2 C :    0.007893
   3 H :    0.025346
   4 H :    0.007245
   5 H :    0.007245
   6 H :    0.017669
   7 H :    0.017670
   8 H :    0.009264

  Mayer bond orders larger than 0.1
B(  0-C ,  1-O ) :   0.9724 B(  0-C ,  3-H ) :   0.9921 B(  0-C ,  4-H ) :   0.9810
B(  0-C ,  5-H ) :   0.9810 B(  1-O ,  2-C ) :   0.9627 B(  2-C ,  6-H ) :   0.9879
B(  2-C ,  7-H ) :   0.9879 B(  2-C ,  8-H ) :   0.9826

E(0)                                       ...   -154.069561151
E(0)                                       ...   -154.069561151
E(CORR)(strong-pairs)                      ...     -0.518441311
E(CORR)(weak-pairs)                        ...     -0.000087192
E(CORR)(corrected)                         ...     -0.518528503
E(TOT)                                     ...   -154.588089655
E(CCSD(T))                                 ...   -154.600503095
FINAL SINGLE POINT ENERGY      -154.600503095491

DIPOLE MOMENT
-------------
                                X             Y             Z
Electronic contribution:      0.03506      -1.74891      -0.00001
Nuclear contribution   :     -0.02924       2.32461       0.00001
                        -----------------------------------------
Total Dipole Moment    :      0.00581       0.57571       0.00000
                        -----------------------------------------
Magnitude (a.u.)       :      0.57574
Magnitude (Debye)      :      1.46341

Rotational constants in cm-1:     1.354931     0.322577     0.290978
Rotational constants in MHz : 40619.805729  9670.616803  8723.307100

                             ****ORCA TERMINATED NORMALLY****
TOTAL RUN TIME: 0 days 0 hours 0 minutes 14 seconds 304 msec
