                         Program Version 4.1.x  -  STABLE  -
|  1> ! RHF DLPNO-CCSD(T) cc-pVDZ RIJK cc-pVTZ/JK cc-pVDZ/C
|  2> ! KDIIS SOSCF TightSCF TightPNO
|  3>
|  4> %pal nprocs 4 end
|  5>
|  6> %maxcore 8000
|  7>
|  8> %scf maxiter 300
|  9>      shift shift 0.2 erroff 0.1 end
| 10> end
| 11>
| 12> * xyzfile 0 1 DiPhEt_a.xyz
| 13>
| 14>
| 15>                          ****END OF INPUT****

CARTESIAN COORDINATES (ANGSTROEM)
---------------------------------
  C      3.987440   -1.206970   -0.078740
  C      2.621380   -1.204050    0.215000
  C      1.916290   -0.000360    0.364850
  C      2.620750    1.203710    0.214930
  C      3.986790    1.207330   -0.078810
  C      4.675560    0.000360   -0.227770
  C      0.429040   -0.000690    0.646120
  C     -0.429040    0.000660   -0.646090
  C     -1.916300    0.000300   -0.364840
  C     -2.620860   -1.203730   -0.215290
  C     -3.986930   -1.207300    0.078430
  C     -4.675560   -0.000320    0.227750
  C     -3.987300    1.207000    0.079090
  C     -2.621260    1.204030   -0.214630
  H      0.163660    0.877520    1.246610
  H      0.163730   -0.880210    1.244720
  H     -0.163760    0.880190   -1.244690
  H     -0.163620   -0.877530   -1.246570
  H     -2.095350   -2.148390   -0.336670
  H     -2.096000    2.148890   -0.335510
  H     -4.513430   -2.151710    0.185330
  H     -5.738110   -0.000520    0.452960
  H     -4.514150    2.151160    0.186510
  H      2.096250   -2.148950    0.336140
  H      2.095120    2.148330    0.336050
  H      4.513230    2.151760   -0.185980
  H      5.738110    0.000650   -0.453000
  H      4.514350   -2.151130   -0.185880

 Total Charge           Charge          ....    0
 Multiplicity           Mult            ....    1
 Number of Electrons    NEL             ....   98
 Basis Dimension        Dim             ....  266

ORBITAL ENERGIES
----------------

  NO   OCC          E(Eh)            E(eV)
   0   2.0000     -11.243500      -305.9512
   1   2.0000     -11.243498      -305.9511
   2   2.0000     -11.239594      -305.8449
   3   2.0000     -11.239594      -305.8449
   4   2.0000     -11.239413      -305.8400
   5   2.0000     -11.239413      -305.8400
   6   2.0000     -11.236527      -305.7614
   7   2.0000     -11.236148      -305.7511
   8   2.0000     -11.236146      -305.7511
   9   2.0000     -11.235985      -305.7467
  10   2.0000     -11.235726      -305.7396
  11   2.0000     -11.235725      -305.7396
  12   2.0000     -11.235608      -305.7364
  13   2.0000     -11.235606      -305.7364
  14   2.0000      -1.155032       -31.4300
  15   2.0000      -1.148062       -31.2403
  16   2.0000      -1.073866       -29.2214
  17   2.0000      -1.026883       -27.9429
  18   2.0000      -1.010674       -27.5018
  19   2.0000      -1.010403       -27.4945
  20   2.0000      -0.963216       -26.2104
  21   2.0000      -0.874351       -23.7923
  22   2.0000      -0.825341       -22.4587
  23   2.0000      -0.822411       -22.3790
  24   2.0000      -0.798109       -21.7176
  25   2.0000      -0.782741       -21.2995
  26   2.0000      -0.692176       -18.8351
  27   2.0000      -0.688697       -18.7404
  28   2.0000      -0.647590       -17.6218
  29   2.0000      -0.639001       -17.3881
  30   2.0000      -0.627430       -17.0732
  31   2.0000      -0.622254       -16.9324
  32   2.0000      -0.584936       -15.9169
  33   2.0000      -0.582978       -15.8636
  34   2.0000      -0.580780       -15.8038
  35   2.0000      -0.566360       -15.4115
  36   2.0000      -0.557562       -15.1720
  37   2.0000      -0.536593       -14.6014
  38   2.0000      -0.504129       -13.7181
  39   2.0000      -0.502757       -13.6807
  40   2.0000      -0.488469       -13.2919
  41   2.0000      -0.485609       -13.2141
  42   2.0000      -0.478338       -13.0162
  43   2.0000      -0.473254       -12.8779
  44   2.0000      -0.466345       -12.6899
  45   2.0000      -0.333020        -9.0619
  46   2.0000      -0.332459        -9.0467
  47   2.0000      -0.329810        -8.9746
  48   2.0000      -0.316688        -8.6175
  49   0.0000       0.129116         3.5134
  50   0.0000       0.133260         3.6262
  51   0.0000       0.135171         3.6782
  52   0.0000       0.144007         3.9186
  53   0.0000       0.173114         4.7107

MULLIKEN ATOMIC CHARGES
-----------------------
   0 C :   -0.008295
   1 C :   -0.000764
   2 C :   -0.192054
   3 C :   -0.000712
   4 C :   -0.008302
   5 C :   -0.031856
   6 C :    0.080160
   7 C :    0.080163
   8 C :   -0.192049
   9 C :   -0.000742
  10 C :   -0.008287
  11 C :   -0.031857
  12 C :   -0.008298
  13 C :   -0.000739
  14 H :    0.034144
  15 H :    0.034092
  16 H :    0.034096
  17 H :    0.034136
  18 H :    0.009771
  19 H :    0.009769
  20 H :    0.025224
  21 H :    0.023591
  22 H :    0.025225
  23 H :    0.009770
  24 H :    0.009766
  25 H :    0.025229
  26 H :    0.023593
  27 H :    0.025227
Sum of atomic charges:    0.0000000

LOEWDIN ATOMIC CHARGES
----------------------
   0 C :   -0.022668
   1 C :   -0.030813
   2 C :   -0.025410
   3 C :   -0.030797
   4 C :   -0.022671
   5 C :   -0.034786
   6 C :   -0.012370
   7 C :   -0.012368
   8 C :   -0.025411
   9 C :   -0.030801
  10 C :   -0.022668
  11 C :   -0.034786
  12 C :   -0.022666
  13 C :   -0.030811
  14 H :    0.025217
  15 H :    0.025203
  16 H :    0.025203
  17 H :    0.025215
  18 H :    0.023738
  19 H :    0.023739
  20 H :    0.027585
  21 H :    0.026445
  22 H :    0.027586
  23 H :    0.023738
  24 H :    0.023736
  25 H :    0.027589
  26 H :    0.026446
  27 H :    0.027586

  Mayer bond orders larger than 0.1
B(  0-C ,  1-C ) :   1.4668 B(  0-C ,  5-C ) :   1.4547 B(  0-C , 27-H ) :   0.9743
B(  1-C ,  2-C ) :   1.4306 B(  1-C , 23-H ) :   0.9735 B(  2-C ,  3-C ) :   1.4305
B(  2-C ,  6-C ) :   1.0675 B(  3-C ,  4-C ) :   1.4669 B(  3-C , 24-H ) :   0.9735
B(  4-C ,  5-C ) :   1.4547 B(  4-C , 25-H ) :   0.9743 B(  5-C , 26-H ) :   0.9771
B(  6-C ,  7-C ) :   1.0140 B(  6-C , 14-H ) :   0.9562 B(  6-C , 15-H ) :   0.9563
B(  7-C ,  8-C ) :   1.0675 B(  7-C , 16-H ) :   0.9563 B(  7-C , 17-H ) :   0.9562
B(  8-C ,  9-C ) :   1.4306 B(  8-C , 13-C ) :   1.4305 B(  9-C , 10-C ) :   1.4668
B(  9-C , 18-H ) :   0.9735 B( 10-C , 11-C ) :   1.4547 B( 10-C , 20-H ) :   0.9743
B( 11-C , 12-C ) :   1.4547 B( 11-C , 21-H ) :   0.9771 B( 12-C , 13-C ) :   1.4669
B( 12-C , 22-H ) :   0.9743 B( 13-C , 19-H ) :   0.9735

E(0)                                       ...   -538.361168238
E(0)                                       ...   -538.361168238
E(CORR)(strong-pairs)                      ...     -1.934830425
E(CORR)(weak-pairs)                        ...     -0.001566276
E(CORR)(corrected)                         ...     -1.936396702
E(TOT)                                     ...   -540.297564940
E(CCSD(T))                                 ...   -540.377229329
FINAL SINGLE POINT ENERGY      -540.377229329381

DIPOLE MOMENT
-------------
                                X             Y             Z
Electronic contribution:     -0.00004      -0.00008      -0.00002
Nuclear contribution   :      0.00003       0.00008       0.00002
                        -----------------------------------------
Total Dipole Moment    :     -0.00001      -0.00000       0.00000
                        -----------------------------------------
Magnitude (a.u.)       :      0.00001
Magnitude (Debye)      :      0.00004

Rotational constants in cm-1:     0.082524     0.008862     0.008191
Rotational constants in MHz :  2474.015231   265.682182   245.569786

                             ****ORCA TERMINATED NORMALLY****
TOTAL RUN TIME: 0 days 0 hours 14 minutes 22 seconds 105 msec
