                         Program Version 4.1.x  -  STABLE  -
|  1> ! RHF DLPNO-CCSD(T) cc-pVDZ RIJK cc-pVTZ/JK cc-pVDZ/C
|  2> ! KDIIS SOSCF TightSCF TightPNO
|  3>
|  4> %pal nprocs 4 end
|  5>
|  6> %maxcore 8000
|  7>
|  8> %scf maxiter 300
|  9>      shift shift 0.2 erroff 0.1 end
| 10> end
| 11>
| 12> * xyzfile 0 1 DiPhEt_g.xyz
| 13>
| 14>
| 15>                          ****END OF INPUT****

CARTESIAN COORDINATES (ANGSTROEM)
---------------------------------
  C     -2.347630   -1.489270   -0.981090
  C     -1.452620   -0.427900   -1.143580
  C     -1.557370    0.730690   -0.360620
  C     -2.587580    0.797640    0.590740
  C     -3.483720   -0.260370    0.758880
  C     -3.365980   -1.410130   -0.027980
  C     -0.581180    1.877450   -0.516700
  C      0.581140    1.877460    0.516720
  C      1.557360    0.730710    0.360620
  C      1.452720   -0.427830    1.143660
  C      2.347750   -1.489180    0.981170
  C      3.365980   -1.410080    0.027980
  C      3.483640   -0.260380   -0.758970
  C      2.587490    0.797630   -0.590840
  H     -1.120480    2.827160   -0.412500
  H     -0.155560    1.865340   -1.526780
  H      1.120430    2.827170    0.412530
  H      0.155520    1.865320    1.526800
  H      0.662120   -0.499750    1.885940
  H      2.693010    1.691820   -1.201670
  H      2.248850   -2.376540    1.600300
  H      4.064140   -2.232760   -0.097250
  H      4.276960   -0.184440   -1.497610
  H     -0.661970   -0.499850   -1.885790
  H     -2.693170    1.691870    1.201490
  H     -4.277100   -0.184400    1.497450
  H     -4.064130   -2.232820    0.097260
  H     -2.248640   -2.376670   -1.600150

 Total Charge           Charge          ....    0
 Multiplicity           Mult            ....    1
 Number of Electrons    NEL             ....   98
 Basis Dimension        Dim             ....  266

ORBITAL ENERGIES
----------------

  NO   OCC          E(Eh)            E(eV)
   0   2.0000     -11.240597      -305.8722
   1   2.0000     -11.240591      -305.8720
   2   2.0000     -11.237257      -305.7813
   3   2.0000     -11.237177      -305.7791
   4   2.0000     -11.237175      -305.7791
   5   2.0000     -11.236721      -305.7667
   6   2.0000     -11.235895      -305.7442
   7   2.0000     -11.235891      -305.7441
   8   2.0000     -11.233912      -305.6903
   9   2.0000     -11.233910      -305.6902
  10   2.0000     -11.233718      -305.6850
  11   2.0000     -11.233717      -305.6850
  12   2.0000     -11.231772      -305.6321
  13   2.0000     -11.231769      -305.6320
  14   2.0000      -1.153321       -31.3835
  15   2.0000      -1.144387       -31.1404
  16   2.0000      -1.071928       -29.1686
  17   2.0000      -1.022811       -27.8321
  18   2.0000      -1.007736       -27.4219
  19   2.0000      -1.007510       -27.4157
  20   2.0000      -0.963514       -26.2185
  21   2.0000      -0.873347       -23.7650
  22   2.0000      -0.821947       -22.3663
  23   2.0000      -0.820597       -22.3296
  24   2.0000      -0.800111       -21.7721
  25   2.0000      -0.775202       -21.0943
  26   2.0000      -0.690684       -18.7945
  27   2.0000      -0.684382       -18.6230
  28   2.0000      -0.642510       -17.4836
  29   2.0000      -0.637899       -17.3581
  30   2.0000      -0.621607       -16.9148
  31   2.0000      -0.620330       -16.8800
  32   2.0000      -0.586443       -15.9579
  33   2.0000      -0.580302       -15.7908
  34   2.0000      -0.577217       -15.7069
  35   2.0000      -0.570829       -15.5331
  36   2.0000      -0.555604       -15.1188
  37   2.0000      -0.531550       -14.4642
  38   2.0000      -0.512391       -13.9429
  39   2.0000      -0.492397       -13.3988
  40   2.0000      -0.487673       -13.2703
  41   2.0000      -0.482165       -13.1204
  42   2.0000      -0.475360       -12.9352
  43   2.0000      -0.469316       -12.7707
  44   2.0000      -0.465298       -12.6614
  45   2.0000      -0.332873        -9.0579
  46   2.0000      -0.329648        -8.9702
  47   2.0000      -0.321230        -8.7411
  48   2.0000      -0.316964        -8.6250
  49   0.0000       0.131461         3.5772
  50   0.0000       0.135482         3.6866
  51   0.0000       0.140338         3.8188
  52   0.0000       0.140678         3.8280
  53   0.0000       0.182616         4.9692

MULLIKEN ATOMIC CHARGES
-----------------------
   0 C :   -0.010250
   1 C :    0.017213
   2 C :   -0.196564
   3 C :    0.003185
   4 C :   -0.010758
   5 C :   -0.031685
   6 C :    0.066321
   7 C :    0.066334
   8 C :   -0.196573
   9 C :    0.017208
  10 C :   -0.010241
  11 C :   -0.031675
  12 C :   -0.010761
  13 C :    0.003176
  14 H :    0.032984
  15 H :    0.029709
  16 H :    0.032987
  17 H :    0.029707
  18 H :    0.018610
  19 H :    0.010077
  20 H :    0.024938
  21 H :    0.022494
  22 H :    0.023722
  23 H :    0.018608
  24 H :    0.010073
  25 H :    0.023721
  26 H :    0.022498
  27 H :    0.024941
Sum of atomic charges:   -0.0000000

LOEWDIN ATOMIC CHARGES
----------------------
   0 C :   -0.023335
   1 C :   -0.022700
   2 C :   -0.028846
   3 C :   -0.032129
   4 C :   -0.026177
   5 C :   -0.034974
   6 C :   -0.012984
   7 C :   -0.012981
   8 C :   -0.028845
   9 C :   -0.022702
  10 C :   -0.023338
  11 C :   -0.034978
  12 C :   -0.026176
  13 C :   -0.032128
  14 H :    0.026818
  15 H :    0.024059
  16 H :    0.026818
  17 H :    0.024059
  18 H :    0.027012
  19 H :    0.022929
  20 H :    0.027577
  21 H :    0.025937
  22 H :    0.026817
  23 H :    0.027011
  24 H :    0.022928
  25 H :    0.026817
  26 H :    0.025936
  27 H :    0.027576

  Mayer bond orders larger than 0.1
B(  0-C ,  1-C ) :   1.4623 B(  0-C ,  5-C ) :   1.4581 B(  0-C , 27-H ) :   0.9744
B(  1-C ,  2-C ) :   1.4394 B(  1-C , 23-H ) :   0.9706 B(  2-C ,  3-C ) :   1.4255
B(  2-C ,  6-C ) :   1.0536 B(  3-C ,  4-C ) :   1.4717 B(  3-C , 24-H ) :   0.9719
B(  4-C ,  5-C ) :   1.4504 B(  4-C , 25-H ) :   0.9745 B(  5-C , 26-H ) :   0.9772
B(  6-C ,  7-C ) :   1.0308 B(  6-C , 14-H ) :   0.9594 B(  6-C , 15-H ) :   0.9596
B(  7-C ,  8-C ) :   1.0536 B(  7-C , 16-H ) :   0.9594 B(  7-C , 17-H ) :   0.9596
B(  8-C ,  9-C ) :   1.4394 B(  8-C , 13-C ) :   1.4255 B(  9-C , 10-C ) :   1.4623
B(  9-C , 18-H ) :   0.9706 B( 10-C , 11-C ) :   1.4582 B( 10-C , 20-H ) :   0.9744
B( 11-C , 12-C ) :   1.4504 B( 11-C , 21-H ) :   0.9772 B( 12-C , 13-C ) :   1.4717
B( 12-C , 22-H ) :   0.9745 B( 13-C , 19-H ) :   0.9719

E(0)                                       ...   -538.359754169
E(0)                                       ...   -538.359754169
E(CORR)(strong-pairs)                      ...     -1.936260497
E(CORR)(weak-pairs)                        ...     -0.001805740
E(CORR)(corrected)                         ...     -1.938066237
E(TOT)                                     ...   -540.297820406
E(CCSD(T))                                 ...   -540.377722505
FINAL SINGLE POINT ENERGY      -540.377722505165

DIPOLE MOMENT
-------------
                                X             Y             Z
Electronic contribution:      0.00003      -2.10829      -0.00002
Nuclear contribution   :     -0.00002       2.20280       0.00003
                        -----------------------------------------
Total Dipole Moment    :      0.00002       0.09451       0.00000
                        -----------------------------------------
Magnitude (a.u.)       :      0.09451
Magnitude (Debye)      :      0.24024

Rotational constants in cm-1:     0.044154     0.014243     0.012550
Rotational constants in MHz :  1323.698038   426.984336   376.229824

                             ****ORCA TERMINATED NORMALLY****
TOTAL RUN TIME: 0 days 0 hours 17 minutes 53 seconds 799 msec
