                         Program Version 4.1.x  -  STABLE  -
|  1> ! RHF DLPNO-CCSD(T) cc-pVDZ RIJK cc-pVTZ/JK cc-pVDZ/C
|  2> ! KDIIS SOSCF TightSCF TightPNO
|  3>
|  4> %pal nprocs 4 end
|  5>
|  6> %maxcore 8000
|  7>
|  8> %scf maxiter 300
|  9>      shift shift 0.2 erroff 0.1 end
| 10> end
| 11>
| 12> * xyzfile 0 1 Et4C_T3.xyz
| 13>
| 14>
| 15>                          ****END OF INPUT****

CARTESIAN COORDINATES (ANGSTROEM)
---------------------------------
  C      1.914440    0.196430   -1.810630
  C      0.883030    0.899300   -0.914430
  C     -0.000120   -0.000130   -0.000050
  C     -0.883310    0.914140    0.899450
  C     -1.913550    1.811640    0.196500
  C      0.883180   -0.899540    0.914200
  C      1.914200   -0.196610    1.810810
  C     -0.883370   -0.914460   -0.899420
  C     -1.914580   -1.810860   -0.196470
  H      2.458250    0.937180   -2.407400
  H      2.656570   -0.361570   -1.230160
  H      1.446900   -0.502340   -2.511530
  H      2.458430   -0.937410    2.407150
  H      2.656030    0.362120    1.230660
  H      1.446300    0.501510    2.512110
  H     -2.457990   -2.408080   -0.937150
  H     -1.446920   -2.511320    0.502650
  H     -2.657070   -1.230490    0.361160
  H      0.220880    1.491930   -1.557170
  H      1.409650    1.626980   -0.283140
  H      0.221120   -1.492580    1.556670
  H     -1.410960    0.282620    1.626170
  H     -0.221160    1.555930    1.493120
  H     -2.457890    2.407810    0.937350
  H     -1.444950    2.513120   -0.500980
  H     -2.655350    1.232150   -0.362950
  H      1.410170   -1.626830    0.282790
  H     -0.221290   -1.557050   -1.492300
  H     -1.410220   -0.283110   -1.626860

 Total Charge           Charge          ....    0
 Multiplicity           Mult            ....    1
 Number of Electrons    NEL             ....   74
 Basis Dimension        Dim             ....  226

ORBITAL ENERGIES
----------------

  NO   OCC          E(Eh)            E(eV)
   0   2.0000     -11.231064      -305.6128
   1   2.0000     -11.218389      -305.2679
   2   2.0000     -11.218389      -305.2679
   3   2.0000     -11.218386      -305.2678
   4   2.0000     -11.218339      -305.2665
   5   2.0000     -11.216624      -305.2198
   6   2.0000     -11.216623      -305.2198
   7   2.0000     -11.216622      -305.2198
   8   2.0000     -11.216622      -305.2198
   9   2.0000      -1.113647       -30.3039
  10   2.0000      -1.011534       -27.5252
  11   2.0000      -1.004119       -27.3235
  12   2.0000      -1.004115       -27.3234
  13   2.0000      -0.916582       -24.9415
  14   2.0000      -0.841870       -22.9084
  15   2.0000      -0.841856       -22.9081
  16   2.0000      -0.819847       -22.3092
  17   2.0000      -0.701373       -19.0853
  18   2.0000      -0.641576       -17.4582
  19   2.0000      -0.609446       -16.5839
  20   2.0000      -0.608951       -16.5704
  21   2.0000      -0.608932       -16.5699
  22   2.0000      -0.580926       -15.8078
  23   2.0000      -0.554046       -15.0764
  24   2.0000      -0.554022       -15.0757
  25   2.0000      -0.535378       -14.5684
  26   2.0000      -0.514664       -14.0047
  27   2.0000      -0.514649       -14.0043
  28   2.0000      -0.502267       -13.6674
  29   2.0000      -0.499218       -13.5844
  30   2.0000      -0.497582       -13.5399
  31   2.0000      -0.481773       -13.1097
  32   2.0000      -0.481762       -13.1094
  33   2.0000      -0.457628       -12.4527
  34   2.0000      -0.426717       -11.6116
  35   2.0000      -0.420141       -11.4326
  36   2.0000      -0.420140       -11.4326
  37   0.0000       0.181054         4.9267
  38   0.0000       0.190112         5.1732
  39   0.0000       0.205427         5.5900
  40   0.0000       0.205430         5.5900
  41   0.0000       0.237174         6.4538

MULLIKEN ATOMIC CHARGES
-----------------------
   0 C :   -0.022620
   1 C :    0.002768
   2 C :   -0.455912
   3 C :    0.002815
   4 C :   -0.022657
   5 C :    0.002795
   6 C :   -0.022639
   7 C :    0.002839
   8 C :   -0.022643
   9 H :    0.029579
  10 H :    0.030022
  11 H :    0.029977
  12 H :    0.029581
  13 H :    0.030010
  14 H :    0.029989
  15 H :    0.029581
  16 H :    0.029976
  17 H :    0.030027
  18 H :    0.025711
  19 H :    0.018524
  20 H :    0.025699
  21 H :    0.018532
  22 H :    0.025708
  23 H :    0.029579
  24 H :    0.030001
  25 H :    0.030000
  26 H :    0.018535
  27 H :    0.025694
  28 H :    0.018525
Sum of atomic charges:   -0.0000000

LOEWDIN ATOMIC CHARGES
----------------------
   0 C :   -0.052245
   1 C :   -0.027435
   2 C :   -0.053178
   3 C :   -0.027433
   4 C :   -0.052250
   5 C :   -0.027433
   6 C :   -0.052248
   7 C :   -0.027428
   8 C :   -0.052246
   9 H :    0.023227
  10 H :    0.017882
  11 H :    0.018610
  12 H :    0.023229
  13 H :    0.017879
  14 H :    0.018608
  15 H :    0.023226
  16 H :    0.018607
  17 H :    0.017882
  18 H :    0.017044
  19 H :    0.016214
  20 H :    0.017042
  21 H :    0.016216
  22 H :    0.017041
  23 H :    0.023227
  24 H :    0.018616
  25 H :    0.017879
  26 H :    0.016216
  27 H :    0.017040
  28 H :    0.016211

  Mayer bond orders larger than 0.1
B(  0-C ,  1-C ) :   1.0694 B(  0-C ,  9-H ) :   0.9821 B(  0-C , 10-H ) :   0.9787
B(  0-C , 11-H ) :   0.9787 B(  1-C ,  2-C ) :   1.0186 B(  1-C , 18-H ) :   0.9600
B(  1-C , 19-H ) :   0.9652 B(  2-C ,  3-C ) :   1.0187 B(  2-C ,  5-C ) :   1.0186
B(  2-C ,  7-C ) :   1.0186 B(  3-C ,  4-C ) :   1.0693 B(  3-C , 21-H ) :   0.9652
B(  3-C , 22-H ) :   0.9600 B(  4-C , 23-H ) :   0.9821 B(  4-C , 24-H ) :   0.9787
B(  4-C , 25-H ) :   0.9787 B(  5-C ,  6-C ) :   1.0694 B(  5-C , 20-H ) :   0.9600
B(  5-C , 26-H ) :   0.9652 B(  6-C , 12-H ) :   0.9821 B(  6-C , 13-H ) :   0.9787
B(  6-C , 14-H ) :   0.9787 B(  7-C ,  8-C ) :   1.0694 B(  7-C , 27-H ) :   0.9600
B(  7-C , 28-H ) :   0.9652 B(  8-C , 15-H ) :   0.9821 B(  8-C , 16-H ) :   0.9787
B(  8-C , 17-H ) :   0.9787

E(0)                                       ...   -352.479110380
E(0)                                       ...   -352.479110380
E(CORR)(strong-pairs)                      ...     -1.444000419
E(CORR)(weak-pairs)                        ...     -0.000921118
E(CORR)(corrected)                         ...     -1.444921536
E(TOT)                                     ...   -353.924031916
E(CCSD(T))                                 ...   -353.967558408
FINAL SINGLE POINT ENERGY      -353.967558408087

DIPOLE MOMENT
-------------
                                X             Y             Z
Electronic contribution:     -0.00053      -0.00062      -0.00023
Nuclear contribution   :      0.00054       0.00061       0.00022
                        -----------------------------------------
Total Dipole Moment    :      0.00001      -0.00001      -0.00001
                        -----------------------------------------
Magnitude (a.u.)       :      0.00001
Magnitude (Debye)      :      0.00003

Rotational constants in cm-1:     0.051363     0.037708     0.037704
Rotational constants in MHz :  1539.824790  1130.467492  1130.322569

                             ****ORCA TERMINATED NORMALLY****
TOTAL RUN TIME: 0 days 0 hours 7 minutes 17 seconds 347 msec
