                         Program Version 4.1.x  -  STABLE  -
|  1> ! RHF DLPNO-CCSD(T) cc-pVDZ RIJK cc-pVTZ/JK cc-pVDZ/C
|  2> ! KDIIS SOSCF TightSCF TightPNO
|  3>
|  4> %pal nprocs 4 end
|  5>
|  6> %maxcore 8000
|  7>
|  8> %scf maxiter 300
|  9>      shift shift 0.2 erroff 0.1 end
| 10> end
| 11>
| 12> * xyzfile 0 1 Et4C_T1.xyz
| 13>
| 14>
| 15>                          ****END OF INPUT****

CARTESIAN COORDINATES (ANGSTROEM)
---------------------------------
  C      1.838020   -1.875300    0.255850
  C      0.874060   -0.889030    0.930340
  C     -0.001290   -0.000710    0.000000
  C     -0.876550    0.887900    0.930170
  C     -1.832160    1.882160    0.255550
  C     -0.889800   -0.876190   -0.930050
  C     -1.879270   -1.836620   -0.255230
  C      0.887160    0.874410   -0.930460
  C      1.878880    1.832870   -0.256160
  H      2.391840   -2.439590    1.014320
  H      1.312740   -2.603440   -0.371190
  H      2.575640   -1.366480   -0.374090
  H     -2.443870   -2.390390   -1.013510
  H     -1.373050   -2.574350    0.376670
  H     -2.606980   -1.308510    0.369910
  H      2.442800    2.386950   -1.014720
  H      1.374610    2.570400    0.377530
  H      2.607090    1.303140    0.367060
  H      1.451480   -0.230910    1.591880
  H      0.206790   -1.450090    1.597020
  H     -1.448250   -0.209170   -1.599160
  H     -1.460500    0.229800    1.585970
  H     -0.209610    1.442480    1.602570
  H     -2.385720    2.446850    1.013920
  H     -1.300230    2.609560   -0.366720
  H     -2.570190    1.379910   -0.379170
  H     -0.231730   -1.456420   -1.589180
  H      0.229000    1.456120   -1.588190
  H      1.443800    0.207210   -1.600910

 Total Charge           Charge          ....    0
 Multiplicity           Mult            ....    1
 Number of Electrons    NEL             ....   74
 Basis Dimension        Dim             ....  226

ORBITAL ENERGIES
----------------

  NO   OCC          E(Eh)            E(eV)
   0   2.0000     -11.230501      -305.5975
   1   2.0000     -11.218224      -305.2634
   2   2.0000     -11.218213      -305.2631
   3   2.0000     -11.218207      -305.2629
   4   2.0000     -11.218163      -305.2617
   5   2.0000     -11.216957      -305.2289
   6   2.0000     -11.216956      -305.2289
   7   2.0000     -11.216954      -305.2288
   8   2.0000     -11.216950      -305.2287
   9   2.0000      -1.114477       -30.3265
  10   2.0000      -1.010573       -27.4991
  11   2.0000      -1.010565       -27.4989
  12   2.0000      -0.998378       -27.1672
  13   2.0000      -0.918867       -25.0036
  14   2.0000      -0.865230       -23.5441
  15   2.0000      -0.816271       -22.2119
  16   2.0000      -0.816267       -22.2118
  17   2.0000      -0.704892       -19.1811
  18   2.0000      -0.641242       -17.4491
  19   2.0000      -0.641242       -17.4491
  20   2.0000      -0.618417       -16.8280
  21   2.0000      -0.559586       -15.2271
  22   2.0000      -0.558295       -15.1920
  23   2.0000      -0.558276       -15.1915
  24   2.0000      -0.553823       -15.0703
  25   2.0000      -0.552129       -15.0242
  26   2.0000      -0.540483       -14.7073
  27   2.0000      -0.520025       -14.1506
  28   2.0000      -0.500173       -13.6104
  29   2.0000      -0.500162       -13.6101
  30   2.0000      -0.481910       -13.1134
  31   2.0000      -0.479960       -13.0604
  32   2.0000      -0.479955       -13.0602
  33   2.0000      -0.460098       -12.5199
  34   2.0000      -0.425957       -11.5909
  35   2.0000      -0.425951       -11.5907
  36   2.0000      -0.419536       -11.4162
  37   0.0000       0.170225         4.6321
  38   0.0000       0.204242         5.5577
  39   0.0000       0.204244         5.5578
  40   0.0000       0.211056         5.7431
  41   0.0000       0.232785         6.3344

MULLIKEN ATOMIC CHARGES
-----------------------
   0 C :   -0.016847
   1 C :   -0.002948
   2 C :   -0.449952
   3 C :   -0.002836
   4 C :   -0.016869
   5 C :   -0.002706
   6 C :   -0.016892
   7 C :   -0.003085
   8 C :   -0.016816
   9 H :    0.030887
  10 H :    0.030331
  11 H :    0.030227
  12 H :    0.030882
  13 H :    0.030220
  14 H :    0.030413
  15 H :    0.030890
  16 H :    0.030127
  17 H :    0.030392
  18 H :    0.020494
  19 H :    0.020282
  20 H :    0.020286
  21 H :    0.020486
  22 H :    0.020288
  23 H :    0.030885
  24 H :    0.030468
  25 H :    0.030125
  26 H :    0.020494
  27 H :    0.020487
  28 H :    0.020285
Sum of atomic charges:   -0.0000000

LOEWDIN ATOMIC CHARGES
----------------------
   0 C :   -0.052429
   1 C :   -0.028425
   2 C :   -0.052918
   3 C :   -0.028409
   4 C :   -0.052434
   5 C :   -0.028388
   6 C :   -0.052435
   7 C :   -0.028446
   8 C :   -0.052427
   9 H :    0.023548
  10 H :    0.018561
  11 H :    0.018601
  12 H :    0.023542
  13 H :    0.018597
  14 H :    0.018567
  15 H :    0.023552
  16 H :    0.018590
  17 H :    0.018574
  18 H :    0.016673
  19 H :    0.016693
  20 H :    0.016687
  21 H :    0.016700
  22 H :    0.016668
  23 H :    0.023545
  24 H :    0.018579
  25 H :    0.018586
  26 H :    0.016685
  27 H :    0.016684
  28 H :    0.016678

  Mayer bond orders larger than 0.1
B(  0-C ,  1-C ) :   1.0684 B(  0-C ,  9-H ) :   0.9813 B(  0-C , 10-H ) :   0.9778
B(  0-C , 11-H ) :   0.9778 B(  1-C ,  2-C ) :   1.0185 B(  1-C , 18-H ) :   0.9633
B(  1-C , 19-H ) :   0.9633 B(  2-C ,  3-C ) :   1.0184 B(  2-C ,  5-C ) :   1.0184
B(  2-C ,  7-C ) :   1.0185 B(  3-C ,  4-C ) :   1.0684 B(  3-C , 21-H ) :   0.9634
B(  3-C , 22-H ) :   0.9633 B(  4-C , 23-H ) :   0.9813 B(  4-C , 24-H ) :   0.9778
B(  4-C , 25-H ) :   0.9779 B(  5-C ,  6-C ) :   1.0684 B(  5-C , 20-H ) :   0.9633
B(  5-C , 26-H ) :   0.9633 B(  6-C , 12-H ) :   0.9813 B(  6-C , 13-H ) :   0.9778
B(  6-C , 14-H ) :   0.9778 B(  7-C ,  8-C ) :   1.0684 B(  7-C , 27-H ) :   0.9634
B(  7-C , 28-H ) :   0.9633 B(  8-C , 15-H ) :   0.9813 B(  8-C , 16-H ) :   0.9778
B(  8-C , 17-H ) :   0.9778

E(0)                                       ...   -352.480473074
E(0)                                       ...   -352.480473074
E(CORR)(strong-pairs)                      ...     -1.443989732
E(CORR)(weak-pairs)                        ...     -0.000854030
E(CORR)(corrected)                         ...     -1.444843762
E(TOT)                                     ...   -353.925316836
E(CCSD(T))                                 ...   -353.968802692
FINAL SINGLE POINT ENERGY      -353.968802692404

DIPOLE MOMENT
-------------
                                X             Y             Z
Electronic contribution:     -0.00628      -0.00339       0.00001
Nuclear contribution   :      0.00614       0.00332      -0.00001
                        -----------------------------------------
Total Dipole Moment    :     -0.00013      -0.00006       0.00000
                        -----------------------------------------
Magnitude (a.u.)       :      0.00015
Magnitude (Debye)      :      0.00037

Rotational constants in cm-1:     0.049581     0.049569     0.031269
Rotational constants in MHz :  1486.393630  1486.045909   937.415532

                             ****ORCA TERMINATED NORMALLY****
TOTAL RUN TIME: 0 days 0 hours 6 minutes 45 seconds 893 msec
