                         Program Version 4.1.x  -  STABLE  -
|  1> ! RHF DLPNO-CCSD(T) cc-pVDZ RIJK cc-pVTZ/JK cc-pVDZ/C
|  2> ! KDIIS SOSCF TightSCF TightPNO
|  3>
|  4> %pal nprocs 4 end
|  5>
|  6> %maxcore 8000
|  7>
|  8> %scf maxiter 300
|  9>      shift shift 0.2 erroff 0.1 end
| 10> end
| 11>
| 12> * xyzfile 0 1 Et_P_Me2_a.xyz
| 13>
| 14>
| 15>                          ****END OF INPUT****

CARTESIAN COORDINATES (ANGSTROEM)
---------------------------------
  C      1.017070    1.427050    0.496510
  P      0.669810   -0.000000   -0.657170
  C      1.017120   -1.427020    0.496530
  C     -1.209700   -0.000030   -0.708000
  C     -2.002520   -0.000000    0.605070
  H     -1.484850    0.873580   -1.313200
  H     -1.484830   -0.873680   -1.313150
  H     -3.080250   -0.000060    0.403070
  H     -1.786220   -0.884540    1.212980
  H     -1.786300    0.884610    1.212900
  H      2.097730    1.491710    0.659270
  H      0.698630    2.363470    0.026670
  H      0.525300    1.334950    1.471140
  H      2.097760   -1.491500    0.659450
  H      0.525180   -1.335020    1.471090
  H      0.698900   -2.363480    0.026630

 Total Charge           Charge          ....    0
 Multiplicity           Mult            ....    1
 Number of Electrons    NEL             ....   50
 Basis Dimension        Dim             ....  129

ORBITAL ENERGIES
----------------

  NO   OCC          E(Eh)            E(eV)
   0   2.0000     -79.930176     -2175.0107
   1   2.0000     -11.230803      -305.6057
   2   2.0000     -11.226659      -305.4929
   3   2.0000     -11.225545      -305.4626
   4   2.0000     -11.225534      -305.4623
   5   2.0000      -7.470865      -203.2926
   6   2.0000      -5.364904      -145.9865
   7   2.0000      -5.364888      -145.9860
   8   2.0000      -5.362744      -145.9277
   9   2.0000      -1.038706       -28.2646
  10   2.0000      -0.976269       -26.5656
  11   2.0000      -0.929730       -25.2992
  12   2.0000      -0.855077       -23.2678
  13   2.0000      -0.705023       -19.1846
  14   2.0000      -0.610305       -16.6072
  15   2.0000      -0.596433       -16.2298
  16   2.0000      -0.574825       -15.6418
  17   2.0000      -0.552111       -15.0237
  18   2.0000      -0.542714       -14.7680
  19   2.0000      -0.540036       -14.6951
  20   2.0000      -0.521647       -14.1947
  21   2.0000      -0.495365       -13.4796
  22   2.0000      -0.443404       -12.0656
  23   2.0000      -0.427439       -11.6312
  24   2.0000      -0.323119        -8.7925
  25   0.0000       0.169126         4.6021
  26   0.0000       0.189590         5.1590
  27   0.0000       0.199601         5.4314
  28   0.0000       0.220609         6.0031
  29   0.0000       0.240635         6.5480

MULLIKEN ATOMIC CHARGES
-----------------------
   0 C :   -0.229810
   1 P :    0.216151
   2 C :   -0.229806
   3 C :   -0.250675
   4 C :   -0.039391
   5 H :    0.052561
   6 H :    0.052561
   7 H :    0.035670
   8 H :    0.035618
   9 H :    0.035620
  10 H :    0.057466
  11 H :    0.054954
  12 H :    0.048331
  13 H :    0.057464
  14 H :    0.048331
  15 H :    0.054955
Sum of atomic charges:   -0.0000000

LOEWDIN ATOMIC CHARGES
----------------------
   0 C :   -0.194675
   1 P :    0.402663
   2 C :   -0.194674
   3 C :   -0.172636
   4 C :   -0.065532
   5 H :    0.021012
   6 H :    0.021013
   7 H :    0.023864
   8 H :    0.020173
   9 H :    0.020173
  10 H :    0.023861
  11 H :    0.022966
  12 H :    0.012484
  13 H :    0.023860
  14 H :    0.012484
  15 H :    0.022965

  Mayer bond orders larger than 0.1
B(  0-C ,  1-P ) :   1.0084 B(  0-C , 10-H ) :   0.9792 B(  0-C , 11-H ) :   0.9790
B(  0-C , 12-H ) :   0.9741 B(  1-P ,  2-C ) :   1.0085 B(  1-P ,  3-C ) :   0.9992
B(  2-C , 13-H ) :   0.9792 B(  2-C , 14-H ) :   0.9741 B(  2-C , 15-H ) :   0.9790
B(  3-C ,  4-C ) :   1.0378 B(  3-C ,  5-H ) :   0.9671 B(  3-C ,  6-H ) :   0.9671
B(  4-C ,  7-H ) :   0.9815 B(  4-C ,  8-H ) :   0.9821 B(  4-C ,  9-H ) :   0.9821

E(0)                                       ...   -498.622997160
E(0)                                       ...   -498.622997160
E(CORR)(strong-pairs)                      ...     -0.786821851
E(CORR)(weak-pairs)                        ...     -0.000220884
E(CORR)(corrected)                         ...     -0.787042735
E(TOT)                                     ...   -499.410039895
E(CCSD(T))                                 ...   -499.433086383
FINAL SINGLE POINT ENERGY      -499.433086383006

DIPOLE MOMENT
-------------
                                X             Y             Z
Electronic contribution:      3.49839      -0.00003      -4.93419
Nuclear contribution   :     -3.76930       0.00003       5.35948
                        -----------------------------------------
Total Dipole Moment    :     -0.27091       0.00000       0.42529
                        -----------------------------------------
Magnitude (a.u.)       :      0.50425
Magnitude (Debye)      :      1.28169

Rotational constants in cm-1:     0.149764     0.095526     0.081572
Rotational constants in MHz :  4489.808358  2863.788674  2445.455966

                             ****ORCA TERMINATED NORMALLY****
TOTAL RUN TIME: 0 days 0 hours 1 minutes 3 seconds 44 msec
