                         Program Version 4.1.x  -  STABLE  -
|  1> ! RHF DLPNO-CCSD(T) cc-pVDZ RIJK cc-pVTZ/JK cc-pVDZ/C
|  2> ! KDIIS SOSCF TightSCF TightPNO
|  3>
|  4> %pal nprocs 4 end
|  5>
|  6> %maxcore 8000
|  7>
|  8> %scf maxiter 300
|  9>      shift shift 0.2 erroff 0.1 end
| 10> end
| 11>
| 12> * xyzfile 0 1 Et_P_Me2_g.xyz
| 13>
| 14>
| 15>                          ****END OF INPUT****

CARTESIAN COORDINATES (ANGSTROEM)
---------------------------------
  C      0.670240    1.633150    0.284370
  P      0.450400   -0.002120   -0.590980
  C      1.818310   -0.967120    0.235570
  C     -1.013720   -0.692480    0.357300
  C     -2.350610   -0.040820   -0.021830
  H     -1.050270   -1.765660    0.130440
  H     -0.833900   -0.601100    1.437770
  H     -3.182460   -0.515380    0.510750
  H     -2.367330    1.024990    0.231020
  H     -2.545750   -0.130860   -1.095940
  H      1.605620    2.097110   -0.044850
  H     -0.144570    2.312810    0.017160
  H      0.697050    1.523780    1.375820
  H      2.788030   -0.587580   -0.102010
  H      1.777720   -0.902840    1.330050
  H      1.754610   -2.019840   -0.058040

 Total Charge           Charge          ....    0
 Multiplicity           Mult            ....    1
 Number of Electrons    NEL             ....   50
 Basis Dimension        Dim             ....  129

ORBITAL ENERGIES
----------------

  NO   OCC          E(Eh)            E(eV)
   0   2.0000     -79.930155     -2175.0101
   1   2.0000     -11.230105      -305.5867
   2   2.0000     -11.226298      -305.4831
   3   2.0000     -11.226111      -305.4780
   4   2.0000     -11.225976      -305.4743
   5   2.0000      -7.471090      -203.2987
   6   2.0000      -5.365142      -145.9929
   7   2.0000      -5.365047      -145.9904
   8   2.0000      -5.363027      -145.9354
   9   2.0000      -1.038985       -28.2722
  10   2.0000      -0.979225       -26.6461
  11   2.0000      -0.929681       -25.2979
  12   2.0000      -0.847451       -23.0603
  13   2.0000      -0.709335       -19.3020
  14   2.0000      -0.612687       -16.6721
  15   2.0000      -0.587343       -15.9824
  16   2.0000      -0.574687       -15.6380
  17   2.0000      -0.563634       -15.3372
  18   2.0000      -0.545690       -14.8490
  19   2.0000      -0.540720       -14.7137
  20   2.0000      -0.511044       -13.9062
  21   2.0000      -0.494188       -13.4475
  22   2.0000      -0.443988       -12.0815
  23   2.0000      -0.427531       -11.6337
  24   2.0000      -0.325478        -8.8567
  25   0.0000       0.174105         4.7376
  26   0.0000       0.181705         4.9444
  27   0.0000       0.193789         5.2733
  28   0.0000       0.220493         5.9999
  29   0.0000       0.231133         6.2895

MULLIKEN ATOMIC CHARGES
-----------------------
   0 C :   -0.225808
   1 P :    0.222298
   2 C :   -0.226050
   3 C :   -0.256477
   4 C :   -0.032812
   5 H :    0.049176
   6 H :    0.041583
   7 H :    0.035852
   8 H :    0.032656
   9 H :    0.042604
  10 H :    0.056341
  11 H :    0.056946
  12 H :    0.045649
  13 H :    0.056372
  14 H :    0.045731
  15 H :    0.055939
Sum of atomic charges:    0.0000000

LOEWDIN ATOMIC CHARGES
----------------------
   0 C :   -0.192639
   1 P :    0.401221
   2 C :   -0.191575
   3 C :   -0.165395
   4 C :   -0.063559
   5 H :    0.018868
   6 H :    0.009909
   7 H :    0.023242
   8 H :    0.019185
   9 H :    0.023107
  10 H :    0.023366
  11 H :    0.021670
  12 H :    0.013277
  13 H :    0.023122
  14 H :    0.013488
  15 H :    0.022716

  Mayer bond orders larger than 0.1
B(  0-C ,  1-P ) :   1.0078 B(  0-C , 10-H ) :   0.9793 B(  0-C , 11-H ) :   0.9792
B(  0-C , 12-H ) :   0.9740 B(  1-P ,  2-C ) :   1.0162 B(  1-P ,  3-C ) :   0.9936
B(  2-C , 13-H ) :   0.9793 B(  2-C , 14-H ) :   0.9739 B(  2-C , 15-H ) :   0.9793
B(  3-C ,  4-C ) :   1.0513 B(  3-C ,  5-H ) :   0.9677 B(  3-C ,  6-H ) :   0.9637
B(  4-C ,  7-H ) :   0.9823 B(  4-C ,  8-H ) :   0.9818 B(  4-C ,  9-H ) :   0.9798

E(0)                                       ...   -498.624963750
E(0)                                       ...   -498.624963750
E(CORR)(strong-pairs)                      ...     -0.786430106
E(CORR)(weak-pairs)                        ...     -0.000212600
E(CORR)(corrected)                         ...     -0.786642706
E(TOT)                                     ...   -499.411606456
E(CCSD(T))                                 ...   -499.434583154
FINAL SINGLE POINT ENERGY      -499.434583153549

DIPOLE MOMENT
-------------
                                X             Y             Z
Electronic contribution:      2.00346      -0.47486      -3.99852
Nuclear contribution   :     -2.01156       0.45588       4.47604
                        -----------------------------------------
Total Dipole Moment    :     -0.00811      -0.01897       0.47752
                        -----------------------------------------
Magnitude (a.u.)       :      0.47796
Magnitude (Debye)      :      1.21489

Rotational constants in cm-1:     0.182378     0.087513     0.069409
Rotational constants in MHz :  5467.547932  2623.583841  2080.818396

                             ****ORCA TERMINATED NORMALLY****
TOTAL RUN TIME: 0 days 0 hours 1 minutes 4 seconds 215 msec
