                         Program Version 4.1.x  -  STABLE  -
|  1> ! RHF DLPNO-CCSD(T) cc-pVDZ RIJK cc-pVTZ/JK cc-pVDZ/C
|  2> ! KDIIS SOSCF TightSCF TightPNO
|  3>
|  4> %pal nprocs 4 end
|  5>
|  6> %maxcore 8000
|  7>
|  8> %scf maxiter 300
|  9>      shift shift 0.2 erroff 0.1 end
| 10> end
| 11>
| 12> * xyzfile 1 1 EtdiMeNH_g.xyz
| 13>
| 14>
| 15>                          ****END OF INPUT****

CARTESIAN COORDINATES (ANGSTROEM)
---------------------------------
  C     -1.803420   -0.000010   -0.513620
  C     -0.921370    0.000000    0.725680
  N      0.583150   -0.000000    0.432590
  C      1.051630    1.246380   -0.272680
  C      1.051650   -1.246370   -0.272670
  H     -2.844170   -0.000020   -0.177200
  H     -1.666300    0.891640   -1.130080
  H     -1.666280   -0.891670   -1.130060
  H     -1.098030    0.885810    1.341210
  H     -1.098020   -0.885780    1.341240
  H      2.141300   -1.234690   -0.313820
  H      0.706960   -2.118690    0.283600
  H      0.644050   -1.257210   -1.282390
  H      1.035250    0.000010    1.351800
  H      0.706910    2.118690    0.283580
  H      0.644040    1.257180   -1.282400
  H      2.141280    1.234730   -0.313800

 Total Charge           Charge          ....    1
 Multiplicity           Mult            ....    1
 Number of Electrons    NEL             ....   42
 Basis Dimension        Dim             ....  130

ORBITAL ENERGIES
----------------

  NO   OCC          E(Eh)            E(eV)
   0   2.0000     -15.874379      -431.9638
   1   2.0000     -11.469096      -312.0900
   2   2.0000     -11.465831      -312.0011
   3   2.0000     -11.465815      -312.0007
   4   2.0000     -11.396764      -310.1217
   5   2.0000      -1.499271       -40.7973
   6   2.0000      -1.215948       -33.0876
   7   2.0000      -1.173410       -31.9301
   8   2.0000      -1.116758       -30.3885
   9   2.0000      -1.014289       -27.6002
  10   2.0000      -0.926950       -25.2236
  11   2.0000      -0.856899       -23.3174
  12   2.0000      -0.849173       -23.1072
  13   2.0000      -0.783750       -21.3269
  14   2.0000      -0.755113       -20.5477
  15   2.0000      -0.748388       -20.3647
  16   2.0000      -0.738704       -20.1012
  17   2.0000      -0.731021       -19.8921
  18   2.0000      -0.702184       -19.1074
  19   2.0000      -0.688010       -18.7217
  20   2.0000      -0.676601       -18.4112
  21   0.0000      -0.021176        -0.5762
  22   0.0000       0.027029         0.7355
  23   0.0000       0.043032         1.1710
  24   0.0000       0.052748         1.4354
  25   0.0000       0.069036         1.8786

MULLIKEN ATOMIC CHARGES
-----------------------
   0 C :   -0.075366
   1 C :    0.016646
   2 N :   -0.314401
   3 C :    0.055194
   4 C :    0.055189
   5 H :    0.097958
   6 H :    0.073244
   7 H :    0.073242
   8 H :    0.096705
   9 H :    0.096703
  10 H :    0.104651
  11 H :    0.103794
  12 H :    0.107202
  13 H :    0.193594
  14 H :    0.103792
  15 H :    0.107201
  16 H :    0.104651
Sum of atomic charges:    1.0000000

LOEWDIN ATOMIC CHARGES
----------------------
   0 C :   -0.044832
   1 C :    0.047211
   2 N :    0.266681
   3 C :    0.050661
   4 C :    0.050655
   5 H :    0.060024
   6 H :    0.037779
   7 H :    0.037778
   8 H :    0.045032
   9 H :    0.045030
  10 H :    0.049822
  11 H :    0.049284
  12 H :    0.047498
  13 H :    0.110777
  14 H :    0.049283
  15 H :    0.047497
  16 H :    0.049822

  Mayer bond orders larger than 0.1
B(  0-C ,  1-C ) :   1.0634 B(  0-C ,  5-H ) :   0.9695 B(  0-C ,  6-H ) :   0.9742
B(  0-C ,  7-H ) :   0.9742 B(  1-C ,  2-N ) :   0.8631 B(  1-C ,  8-H ) :   0.9689
B(  1-C ,  9-H ) :   0.9690 B(  2-N ,  3-C ) :   0.8877 B(  2-N ,  4-C ) :   0.8877
B(  2-N , 13-H ) :   0.9314 B(  3-C , 14-H ) :   0.9790 B(  3-C , 15-H ) :   0.9772
B(  3-C , 16-H ) :   0.9797 B(  4-C , 10-H ) :   0.9797 B(  4-C , 11-H ) :   0.9790
B(  4-C , 12-H ) :   0.9772

E(0)                                       ...   -212.705176934
E(0)                                       ...   -212.705176934
E(CORR)(strong-pairs)                      ...     -0.824712490
E(CORR)(weak-pairs)                        ...     -0.000267400
E(CORR)(corrected)                         ...     -0.824979890
E(TOT)                                     ...   -213.530156825
E(CCSD(T))                                 ...   -213.552728071
FINAL SINGLE POINT ENERGY      -213.552728071095

DIPOLE MOMENT
-------------
                                X             Y             Z
Electronic contribution:      1.06503       0.00001       1.54238
Nuclear contribution   :     -0.38075       0.00000      -1.11725
                        -----------------------------------------
Total Dipole Moment    :      0.68428       0.00001       0.42513
                        -----------------------------------------
Magnitude (a.u.)       :      0.80559
Magnitude (Debye)      :      2.04764

Rotational constants in cm-1:     0.206973     0.125265     0.102323
Rotational constants in MHz :  6204.901634  3755.339391  3067.560013

                             ****ORCA TERMINATED NORMALLY****
TOTAL RUN TIME: 0 days 0 hours 0 minutes 56 seconds 193 msec
