                         Program Version 4.1.x  -  STABLE  -
|  1> ! RHF DLPNO-CCSD(T) cc-pVDZ RIJK cc-pVTZ/JK cc-pVDZ/C
|  2> ! KDIIS SOSCF TightSCF TightPNO
|  3>
|  4> %pal nprocs 4 end
|  5>
|  6> %maxcore 8000
|  7>
|  8> %scf maxiter 300
|  9>      shift shift 0.2 erroff 0.1 end
| 10> end
| 11>
| 12> * xyzfile 1 1 EtdiMeNH_a.xyz
| 13>
| 14>
| 15>                          ****END OF INPUT****

CARTESIAN COORDINATES (ANGSTROEM)
---------------------------------
  C      2.078210   -0.020720   -0.136360
  C      0.773230   -0.649780    0.329300
  N     -0.463000   -0.002080   -0.290810
  C     -0.653180    1.431310    0.130590
  C     -1.701760   -0.816480   -0.023080
  H      2.903460   -0.613440    0.267990
  H      2.174570   -0.037510   -1.227520
  H      2.211830    1.003050    0.220290
  H      0.725120   -1.704070    0.046780
  H      0.639480   -0.577150    1.411830
  H     -2.550560   -0.346450   -0.520530
  H     -1.553300   -1.825840   -0.407470
  H     -1.869290   -0.846330    1.054280
  H     -0.314250   -0.000550   -1.305480
  H      0.222800    2.012310   -0.152260
  H     -0.789920    1.456060    1.212560
  H     -1.537980    1.828580   -0.367480

 Total Charge           Charge          ....    1
 Multiplicity           Mult            ....    1
 Number of Electrons    NEL             ....   42
 Basis Dimension        Dim             ....  130

ORBITAL ENERGIES
----------------

  NO   OCC          E(Eh)            E(eV)
   0   2.0000     -15.874515      -431.9675
   1   2.0000     -11.468484      -312.0733
   2   2.0000     -11.466327      -312.0146
   3   2.0000     -11.465725      -311.9982
   4   2.0000     -11.397706      -310.1473
   5   2.0000      -1.500575       -40.8327
   6   2.0000      -1.217815       -33.1384
   7   2.0000      -1.173692       -31.9378
   8   2.0000      -1.102684       -30.0056
   9   2.0000      -1.040256       -28.3068
  10   2.0000      -0.913135       -24.8477
  11   2.0000      -0.860002       -23.4019
  12   2.0000      -0.839859       -22.8537
  13   2.0000      -0.788412       -21.4538
  14   2.0000      -0.761724       -20.7276
  15   2.0000      -0.745701       -20.2916
  16   2.0000      -0.738446       -20.0941
  17   2.0000      -0.732538       -19.9334
  18   2.0000      -0.698774       -19.0146
  19   2.0000      -0.690845       -18.7988
  20   2.0000      -0.677601       -18.4385
  21   0.0000      -0.017083        -0.4648
  22   0.0000       0.025671         0.6985
  23   0.0000       0.042245         1.1495
  24   0.0000       0.049503         1.3470
  25   0.0000       0.060416         1.6440

MULLIKEN ATOMIC CHARGES
-----------------------
   0 C :   -0.063188
   1 C :    0.009720
   2 N :   -0.320091
   3 C :    0.057029
   4 C :    0.058006
   5 H :    0.098141
   6 H :    0.068316
   7 H :    0.076099
   8 H :    0.095683
   9 H :    0.100440
  10 H :    0.104399
  11 H :    0.104702
  12 H :    0.104614
  13 H :    0.190477
  14 H :    0.107196
  15 H :    0.104228
  16 H :    0.104228
Sum of atomic charges:    1.0000000

LOEWDIN ATOMIC CHARGES
----------------------
   0 C :   -0.044583
   1 C :    0.045612
   2 N :    0.267934
   3 C :    0.051161
   4 C :    0.051969
   5 H :    0.059695
   6 H :    0.038196
   7 H :    0.037837
   8 H :    0.045264
   9 H :    0.044794
  10 H :    0.049316
  11 H :    0.049127
  12 H :    0.049619
  13 H :    0.107481
  14 H :    0.047696
  15 H :    0.049283
  16 H :    0.049598

  Mayer bond orders larger than 0.1
B(  0-C ,  1-C ) :   1.0694 B(  0-C ,  5-H ) :   0.9678 B(  0-C ,  6-H ) :   0.9730
B(  0-C ,  7-H ) :   0.9735 B(  1-C ,  2-N ) :   0.8509 B(  1-C ,  8-H ) :   0.9692
B(  1-C ,  9-H ) :   0.9648 B(  2-N ,  3-C ) :   0.8875 B(  2-N ,  4-C ) :   0.8944
B(  2-N , 13-H ) :   0.9287 B(  3-C , 14-H ) :   0.9794 B(  3-C , 15-H ) :   0.9768
B(  3-C , 16-H ) :   0.9795 B(  4-C , 10-H ) :   0.9794 B(  4-C , 11-H ) :   0.9789
B(  4-C , 12-H ) :   0.9776

E(0)                                       ...   -212.706785181
E(0)                                       ...   -212.706785181
E(CORR)(strong-pairs)                      ...     -0.824426036
E(CORR)(weak-pairs)                        ...     -0.000268310
E(CORR)(corrected)                         ...     -0.824694346
E(TOT)                                     ...   -213.531479526
E(CCSD(T))                                 ...   -213.554023848
FINAL SINGLE POINT ENERGY      -213.554023847518

DIPOLE MOMENT
-------------
                                X             Y             Z
Electronic contribution:     -0.87019      -0.37534      -0.51109
Nuclear contribution   :      0.28237       0.37971       0.25190
                        -----------------------------------------
Total Dipole Moment    :     -0.58782       0.00436      -0.25919
                        -----------------------------------------
Magnitude (a.u.)       :      0.64245
Magnitude (Debye)      :      1.63297

Rotational constants in cm-1:     0.249278     0.113692     0.087382
Rotational constants in MHz :  7473.166828  3408.402564  2619.650144

                             ****ORCA TERMINATED NORMALLY****
TOTAL RUN TIME: 0 days 0 hours 0 minutes 55 seconds 529 msec
