                         Program Version 4.1.x  -  STABLE  -
|  1> ! RHF DLPNO-CCSD(T) cc-pVDZ RIJK cc-pVTZ/JK cc-pVDZ/C
|  2> ! KDIIS SOSCF TightSCF TightPNO
|  3>
|  4> %pal nprocs 4 end
|  5>
|  6> %maxcore 8000
|  7>
|  8> %scf maxiter 300
|  9>      shift shift 0.2 erroff 0.1 end
| 10> end
| 11>
| 12> * xyzfile 0 1 ethanediamine_tTt.xyz
| 13>
| 14>
| 15>                          ****END OF INPUT****

CARTESIAN COORDINATES (ANGSTROEM)
---------------------------------
  C      0.577040    0.494080    0.090750
  N      1.864780   -0.182070   -0.111570
  C     -0.577040   -0.494100   -0.090760
  N     -1.864790    0.182070    0.111610
  H      0.494410    1.282750   -0.668340
  H      0.468340    0.980470    1.072690
  H     -0.468370   -0.980480   -1.072720
  H     -0.494420   -1.282790    0.668310
  H     -2.058720    0.828380   -0.649370
  H     -2.629120   -0.486010    0.139320
  H      2.629090    0.486010   -0.139640
  H      2.058860   -0.828170    0.649550

 Total Charge           Charge          ....    0
 Multiplicity           Mult            ....    1
 Number of Electrons    NEL             ....   34
 Basis Dimension        Dim             ....   96

ORBITAL ENERGIES
----------------

  NO   OCC          E(Eh)            E(eV)
   0   2.0000     -15.535890      -422.7531
   1   2.0000     -15.535889      -422.7530
   2   2.0000     -11.245196      -305.9973
   3   2.0000     -11.244594      -305.9810
   4   2.0000      -1.180850       -32.1326
   5   2.0000      -1.148664       -31.2567
   6   2.0000      -0.943968       -25.6867
   7   2.0000      -0.806846       -21.9554
   8   2.0000      -0.657183       -17.8829
   9   2.0000      -0.646696       -17.5975
  10   2.0000      -0.634607       -17.2685
  11   2.0000      -0.553586       -15.0638
  12   2.0000      -0.549790       -14.9605
  13   2.0000      -0.513841       -13.9823
  14   2.0000      -0.475092       -12.9279
  15   2.0000      -0.384336       -10.4583
  16   2.0000      -0.380228       -10.3465
  17   0.0000       0.188556         5.1309
  18   0.0000       0.191414         5.2086
  19   0.0000       0.216782         5.8989
  20   0.0000       0.253869         6.9081
  21   0.0000       0.256398         6.9770

MULLIKEN ATOMIC CHARGES
-----------------------
   0 C :    0.073585
   1 N :   -0.302845
   2 C :    0.073582
   3 N :   -0.302845
   4 H :    0.021842
   5 H :    0.020930
   6 H :    0.020927
   7 H :    0.021846
   8 H :    0.092155
   9 H :    0.094330
  10 H :    0.094332
  11 H :    0.092160
Sum of atomic charges:    0.0000000

LOEWDIN ATOMIC CHARGES
----------------------
   0 C :   -0.019486
   1 N :   -0.068410
   2 C :   -0.019481
   3 N :   -0.068423
   4 H :    0.013577
   5 H :    0.002848
   6 H :    0.002847
   7 H :    0.013577
   8 H :    0.034506
   9 H :    0.036967
  10 H :    0.036966
  11 H :    0.034510

  Mayer bond orders larger than 0.1
B(  0-C ,  1-N ) :   1.0379 B(  0-C ,  2-C ) :   1.0457 B(  0-C ,  4-H ) :   0.9686
B(  0-C ,  5-H ) :   0.9676 B(  1-N , 10-H ) :   0.9856 B(  1-N , 11-H ) :   0.9872
B(  2-C ,  3-N ) :   1.0379 B(  2-C ,  6-H ) :   0.9676 B(  2-C ,  7-H ) :   0.9686
B(  3-N ,  8-H ) :   0.9872 B(  3-N ,  9-H ) :   0.9856

E(0)                                       ...   -189.288908763
E(0)                                       ...   -189.288908763
E(CORR)(strong-pairs)                      ...     -0.684438229
E(CORR)(weak-pairs)                        ...     -0.000154923
E(CORR)(corrected)                         ...     -0.684593153
E(TOT)                                     ...   -189.973501915
E(CCSD(T))                                 ...   -189.991148269
FINAL SINGLE POINT ENERGY      -189.991148268685

DIPOLE MOMENT
-------------
                                X             Y             Z
Electronic contribution:      0.00004      -0.00005       0.00009
Nuclear contribution   :      0.00007       0.00016      -0.00022
                        -----------------------------------------
Total Dipole Moment    :      0.00012       0.00011      -0.00012
                        -----------------------------------------
Magnitude (a.u.)       :      0.00020
Magnitude (Debye)      :      0.00051

Rotational constants in cm-1:     0.910867     0.126336     0.118012
Rotational constants in MHz : 27307.115490  3787.456740  3537.915823

                             ****ORCA TERMINATED NORMALLY****
TOTAL RUN TIME: 0 days 0 hours 0 minutes 26 seconds 693 msec
