                         Program Version 4.1.x  -  STABLE  -
|  1> ! RHF DLPNO-CCSD(T) cc-pVDZ RIJK cc-pVTZ/JK cc-pVDZ/C
|  2> ! KDIIS SOSCF TightSCF TightPNO
|  3>
|  4> %pal nprocs 4 end
|  5>
|  6> %maxcore 8000
|  7>
|  8> %scf maxiter 300
|  9>      shift shift 0.2 erroff 0.1 end
| 10> end
| 11>
| 12> * xyzfile 1 1 ethanediamineH_Gg.xyz
| 13>
| 14>
| 15>                          ****END OF INPUT****

CARTESIAN COORDINATES (ANGSTROEM)
---------------------------------
  C      0.771930    0.672230    0.240000
  N      1.295850   -0.652610   -0.127530
  C     -0.694540    0.742440   -0.231400
  N     -1.309920   -0.598620    0.107370
  H      1.322710    1.512880   -0.194470
  H      0.818920    0.778990    1.328270
  H     -1.264310    1.542950    0.241560
  H     -0.759300    0.847280   -1.316680
  H     -1.642220   -0.648630    1.074320
  H      1.999650   -0.984040    0.525850
  H     -2.078850   -0.868430   -0.509930
  H      1.717210   -0.661360   -1.053750
  H     -0.479660   -1.249060   -0.005660

 Total Charge           Charge          ....    1
 Multiplicity           Mult            ....    1
 Number of Electrons    NEL             ....   34
 Basis Dimension        Dim             ....  101

ORBITAL ENERGIES
----------------

  NO   OCC          E(Eh)            E(eV)
   0   2.0000     -15.871345      -431.8813
   1   2.0000     -15.734360      -428.1537
   2   2.0000     -11.477518      -312.3192
   3   2.0000     -11.446541      -311.4762
   4   2.0000      -1.488415       -40.5018
   5   2.0000      -1.359938       -37.0058
   6   2.0000      -1.181457       -32.1491
   7   2.0000      -1.028557       -27.9884
   8   2.0000      -0.952907       -25.9299
   9   2.0000      -0.945511       -25.7286
  10   2.0000      -0.857391       -23.3308
  11   2.0000      -0.821978       -22.3672
  12   2.0000      -0.782891       -21.3035
  13   2.0000      -0.763240       -20.7688
  14   2.0000      -0.715052       -19.4576
  15   2.0000      -0.686513       -18.6810
  16   2.0000      -0.590324       -16.0635
  17   0.0000      -0.029102        -0.7919
  18   0.0000       0.020520         0.5584
  19   0.0000       0.029906         0.8138
  20   0.0000       0.045039         1.2256
  21   0.0000       0.078023         2.1231

MULLIKEN ATOMIC CHARGES
-----------------------
   0 C :    0.053832
   1 N :   -0.349657
   2 C :    0.023680
   3 N :   -0.031079
   4 H :    0.096014
   5 H :    0.080820
   6 H :    0.112716
   7 H :    0.106041
   8 H :    0.194481
   9 H :    0.152533
  10 H :    0.199163
  11 H :    0.144736
  12 H :    0.216720
Sum of atomic charges:    1.0000000

LOEWDIN ATOMIC CHARGES
----------------------
   0 C :   -0.000350
   1 N :   -0.030865
   2 C :    0.046359
   3 N :    0.334896
   4 H :    0.043473
   5 H :    0.037609
   6 H :    0.050239
   7 H :    0.047658
   8 H :    0.119412
   9 H :    0.068027
  10 H :    0.119584
  11 H :    0.064370
  12 H :    0.099589

  Mayer bond orders larger than 0.1
B(  0-C ,  1-N ) :   1.0171 B(  0-C ,  2-C ) :   1.0333 B(  0-C ,  4-H ) :   0.9728
B(  0-C ,  5-H ) :   0.9693 B(  1-N ,  9-H ) :   0.9724 B(  1-N , 11-H ) :   0.9748
B(  1-N , 12-H ) :   0.1464 B(  2-C ,  3-N ) :   0.9011 B(  2-C ,  6-H ) :   0.9723
B(  2-C ,  7-H ) :   0.9661 B(  3-N ,  8-H ) :   0.9526 B(  3-N , 10-H ) :   0.9521
B(  3-N , 12-H ) :   0.8699

E(0)                                       ...   -189.672419714
E(0)                                       ...   -189.672419714
E(CORR)(strong-pairs)                      ...     -0.689031509
E(CORR)(weak-pairs)                        ...     -0.000177424
E(CORR)(corrected)                         ...     -0.689208933
E(TOT)                                     ...   -190.361628647
E(CCSD(T))                                 ...   -190.379735779
FINAL SINGLE POINT ENERGY      -190.379735778658

DIPOLE MOMENT
-------------
                                X             Y             Z
Electronic contribution:     -0.69972      -0.64875       0.00291
Nuclear contribution   :     -0.39363       0.28316       0.09616
                        -----------------------------------------
Total Dipole Moment    :     -1.09334      -0.36559       0.09907
                        -----------------------------------------
Magnitude (a.u.)       :      1.15710
Magnitude (Debye)      :      2.94111

Rotational constants in cm-1:     0.407041     0.192396     0.149587
Rotational constants in MHz : 12202.773239  5767.874214  4484.518782

                             ****ORCA TERMINATED NORMALLY****
TOTAL RUN TIME: 0 days 0 hours 0 minutes 29 seconds 608 msec
