                         Program Version 4.1.x  -  STABLE  -
|  1> ! RHF DLPNO-CCSD(T) cc-pVDZ RIJK cc-pVTZ/JK cc-pVDZ/C
|  2> ! KDIIS SOSCF TightSCF TightPNO
|  3>
|  4> %pal nprocs 4 end
|  5>
|  6> %maxcore 8000
|  7>
|  8> %scf maxiter 300
|  9>      shift shift 0.2 erroff 0.1 end
| 10> end
| 11>
| 12> * xyzfile 1 1 ethanediamineH_Tg.xyz
| 13>
| 14>
| 15>                          ****END OF INPUT****

CARTESIAN COORDINATES (ANGSTROEM)
---------------------------------
  C      0.470770   -0.534920   -0.056350
  N      1.854740    0.118650    0.018140
  C     -0.646780    0.514500    0.028270
  N     -1.907590   -0.200380   -0.032990
  H      0.422530   -1.244990    0.771750
  H      0.427600   -1.082090   -0.999100
  H     -0.519390    1.124810    0.937840
  H     -0.572140    1.194240   -0.828650
  H     -2.301510   -0.407550    0.877950
  H      2.604190   -0.580170   -0.023190
  H     -2.606900    0.269540   -0.595080
  H      1.971700    0.647710    0.889550
  H      1.999980    0.773080   -0.758640

 Total Charge           Charge          ....    1
 Multiplicity           Mult            ....    1
 Number of Electrons    NEL             ....   34
 Basis Dimension        Dim             ....  101

ORBITAL ENERGIES
----------------

  NO   OCC          E(Eh)            E(eV)
   0   2.0000     -15.902074      -432.7174
   1   2.0000     -15.692903      -427.0256
   2   2.0000     -11.479483      -312.3726
   3   2.0000     -11.439173      -311.2757
   4   2.0000      -1.507304       -41.0158
   5   2.0000      -1.337661       -36.3996
   6   2.0000      -1.176797       -32.0223
   7   2.0000      -1.031099       -28.0576
   8   2.0000      -0.968302       -26.3488
   9   2.0000      -0.951573       -25.8936
  10   2.0000      -0.854147       -23.2425
  11   2.0000      -0.835311       -22.7300
  12   2.0000      -0.765543       -20.8315
  13   2.0000      -0.748277       -20.3616
  14   2.0000      -0.720412       -19.6034
  15   2.0000      -0.673244       -18.3199
  16   2.0000      -0.543364       -14.7857
  17   0.0000      -0.051652        -1.4055
  18   0.0000       0.015910         0.4329
  19   0.0000       0.017482         0.4757
  20   0.0000       0.031741         0.8637
  21   0.0000       0.073835         2.0091

MULLIKEN ATOMIC CHARGES
-----------------------
   0 C :    0.032289
   1 N :   -0.019008
   2 C :    0.061555
   3 N :   -0.294459
   4 H :    0.110688
   5 H :    0.118110
   6 H :    0.053318
   7 H :    0.065016
   8 H :    0.127608
   9 H :    0.206793
  10 H :    0.134945
  11 H :    0.201108
  12 H :    0.202037
Sum of atomic charges:    1.0000000

LOEWDIN ATOMIC CHARGES
----------------------
   0 C :    0.051131
   1 N :    0.348245
   2 C :   -0.017719
   3 N :   -0.035476
   4 H :    0.049154
   5 H :    0.052244
   6 H :    0.019028
   7 H :    0.031932
   8 H :    0.056035
   9 H :    0.130605
  10 H :    0.061133
  11 H :    0.126431
  12 H :    0.127255

  Mayer bond orders larger than 0.1
B(  0-C ,  1-N ) :   0.8484 B(  0-C ,  2-C ) :   1.0188 B(  0-C ,  4-H ) :   0.9643
B(  0-C ,  5-H ) :   0.9615 B(  1-N ,  9-H ) :   0.9480 B(  1-N , 11-H ) :   0.9479
B(  1-N , 12-H ) :   0.9483 B(  2-C ,  3-N ) :   1.0811 B(  2-C ,  6-H ) :   0.9681
B(  2-C ,  7-H ) :   0.9680 B(  3-N ,  8-H ) :   0.9807 B(  3-N , 10-H ) :   0.9781

E(0)                                       ...   -189.659891377
E(0)                                       ...   -189.659891377
E(CORR)(strong-pairs)                      ...     -0.684116787
E(CORR)(weak-pairs)                        ...     -0.000159289
E(CORR)(corrected)                         ...     -0.684276076
E(TOT)                                     ...   -190.344167453
E(CCSD(T))                                 ...   -190.361574237
FINAL SINGLE POINT ENERGY      -190.361574236864

DIPOLE MOMENT
-------------
                                X             Y             Z
Electronic contribution:      0.87427      -0.23150      -0.07748
Nuclear contribution   :      1.53363       0.74664       0.29295
                        -----------------------------------------
Total Dipole Moment    :      2.40790       0.51514       0.21548
                        -----------------------------------------
Magnitude (a.u.)       :      2.47180
Magnitude (Debye)      :      6.28282

Rotational constants in cm-1:     0.835044     0.119977     0.112992
Rotational constants in MHz : 25034.000122  3596.831293  3387.417037

                             ****ORCA TERMINATED NORMALLY****
TOTAL RUN TIME: 0 days 0 hours 0 minutes 40 seconds 335 msec
