                         Program Version 4.1.x  -  STABLE  -
|  1> ! RHF DLPNO-CCSD(T) cc-pVDZ RIJK cc-pVTZ/JK cc-pVDZ/C
|  2> ! KDIIS SOSCF TightSCF TightPNO
|  3>
|  4> %pal nprocs 4 end
|  5>
|  6> %maxcore 8000
|  7>
|  8> %scf maxiter 300
|  9>      shift shift 0.2 erroff 0.1 end
| 10> end
| 11>
| 12> * xyzfile 0 1 ethanediamine_g_plus_g_plus_g_plus.xyz
| 13>
| 14>
| 15>                          ****END OF INPUT****

CARTESIAN COORDINATES (ANGSTROEM)
---------------------------------
  C     -0.721790    0.623650   -0.251730
  N     -1.423580   -0.586640    0.201640
  C      0.721720    0.623630    0.251770
  N      1.423570   -0.586600   -0.201630
  H     -1.239620    1.494970    0.165940
  H     -0.715270    0.730780   -1.348470
  H      1.239530    1.495010   -0.165800
  H      0.715200    0.730680    1.348510
  H     -2.429600   -0.481440    0.112210
  H     -1.155800   -1.380020   -0.375070
  H      2.429620   -0.481040   -0.113070
  H      1.156490   -1.379910    0.375480

 Total Charge           Charge          ....    0
 Multiplicity           Mult            ....    1
 Number of Electrons    NEL             ....   34
 Basis Dimension        Dim             ....   96

ORBITAL ENERGIES
----------------

  NO   OCC          E(Eh)            E(eV)
   0   2.0000     -15.533806      -422.6963
   1   2.0000     -15.533795      -422.6960
   2   2.0000     -11.244279      -305.9724
   3   2.0000     -11.243675      -305.9559
   4   2.0000      -1.183980       -32.2177
   5   2.0000      -1.140074       -31.0230
   6   2.0000      -0.949802       -25.8454
   7   2.0000      -0.795719       -21.6526
   8   2.0000      -0.674079       -18.3426
   9   2.0000      -0.650804       -17.7093
  10   2.0000      -0.596266       -16.2252
  11   2.0000      -0.589169       -16.0321
  12   2.0000      -0.531007       -14.4494
  13   2.0000      -0.501636       -13.6502
  14   2.0000      -0.483346       -13.1525
  15   2.0000      -0.395784       -10.7698
  16   2.0000      -0.369420       -10.0524
  17   0.0000       0.183222         4.9857
  18   0.0000       0.217484         5.9180
  19   0.0000       0.219112         5.9623
  20   0.0000       0.243005         6.6125
  21   0.0000       0.255510         6.9528

MULLIKEN ATOMIC CHARGES
-----------------------
   0 C :    0.081321
   1 N :   -0.312948
   2 C :    0.081295
   3 N :   -0.312948
   4 H :    0.021361
   5 H :    0.017095
   6 H :    0.021364
   7 H :    0.017114
   8 H :    0.095104
   9 H :    0.098061
  10 H :    0.095113
  11 H :    0.098067
Sum of atomic charges:   -0.0000000

LOEWDIN ATOMIC CHARGES
----------------------
   0 C :   -0.017590
   1 N :   -0.072775
   2 C :   -0.017588
   3 N :   -0.072759
   4 H :    0.015387
   5 H :    0.002859
   6 H :    0.015390
   7 H :    0.002870
   8 H :    0.036281
   9 H :    0.035819
  10 H :    0.036284
  11 H :    0.035823

  Mayer bond orders larger than 0.1
B(  0-C ,  1-N ) :   1.0346 B(  0-C ,  2-C ) :   1.0471 B(  0-C ,  4-H ) :   0.9736
B(  0-C ,  5-H ) :   0.9670 B(  1-N ,  8-H ) :   0.9881 B(  1-N ,  9-H ) :   0.9841
B(  2-C ,  3-N ) :   1.0346 B(  2-C ,  6-H ) :   0.9736 B(  2-C ,  7-H ) :   0.9670
B(  3-N , 10-H ) :   0.9881 B(  3-N , 11-H ) :   0.9841

E(0)                                       ...   -189.289271634
E(0)                                       ...   -189.289271634
E(CORR)(strong-pairs)                      ...     -0.685402615
E(CORR)(weak-pairs)                        ...     -0.000160503
E(CORR)(corrected)                         ...     -0.685563117
E(TOT)                                     ...   -189.974834752
E(CCSD(T))                                 ...   -189.992594672
FINAL SINGLE POINT ENERGY      -189.992594671945

DIPOLE MOMENT
-------------
                                X             Y             Z
Electronic contribution:     -0.00010      -0.66707       0.00009
Nuclear contribution   :      0.00057       0.76725      -0.00030
                        -----------------------------------------
Total Dipole Moment    :      0.00047       0.10018      -0.00020
                        -----------------------------------------
Magnitude (a.u.)       :      0.10018
Magnitude (Debye)      :      0.25464

Rotational constants in cm-1:     0.474674     0.178006     0.144189
Rotational constants in MHz : 14230.371457  5336.495514  4322.670115

                             ****ORCA TERMINATED NORMALLY****
TOTAL RUN TIME: 0 days 0 hours 0 minutes 42 seconds 2 msec
