                         Program Version 4.1.x  -  STABLE  -
|  1> ! RHF DLPNO-CCSD(T) cc-pVDZ RIJK cc-pVTZ/JK cc-pVDZ/C
|  2> ! KDIIS SOSCF TightSCF TightPNO
|  3>
|  4> %pal nprocs 4 end
|  5>
|  6> %maxcore 8000
|  7>
|  8> %scf maxiter 300
|  9>      shift shift 0.2 erroff 0.1 end
| 10> end
| 11>
| 12> * xyzfile 0 1 ethane_g.xyz
| 13>
| 14>
| 15>                          ****END OF INPUT****

CARTESIAN COORDINATES (ANGSTROEM)
---------------------------------
  C      0.132830   -0.284220   -0.698580
  C     -0.132830    0.284210    0.698570
  H      0.957090    0.269680   -1.204930
  H      0.424940   -1.358580   -0.643680
  H     -0.775720   -0.208350   -1.339950
  H     -0.957110   -0.269640    1.204950
  H      0.775710    0.208340    1.339970
  H     -0.424910    1.358580    0.643680

 Total Charge           Charge          ....    0
 Multiplicity           Mult            ....    1
 Number of Electrons    NEL             ....   18
 Basis Dimension        Dim             ....   58

ORBITAL ENERGIES
----------------

  NO   OCC          E(Eh)            E(eV)
   0   2.0000     -11.227800      -305.5240
   1   2.0000     -11.227222      -305.5082
   2   2.0000      -1.011654       -27.5285
   3   2.0000      -0.831429       -22.6243
   4   2.0000      -0.589666       -16.0456
   5   2.0000      -0.589663       -16.0455
   6   2.0000      -0.505807       -13.7637
   7   2.0000      -0.480180       -13.0664
   8   2.0000      -0.480177       -13.0663
   9   0.0000       0.183989         5.0066
  10   0.0000       0.233174         6.3450
  11   0.0000       0.251207         6.8357
  12   0.0000       0.251207         6.8357
  13   0.0000       0.282856         7.6969

MULLIKEN ATOMIC CHARGES
-----------------------
   0 C :   -0.108225
   1 C :   -0.108236
   2 H :    0.036077
   3 H :    0.036078
   4 H :    0.036078
   5 H :    0.036076
   6 H :    0.036076
   7 H :    0.036075
Sum of atomic charges:    0.0000000

LOEWDIN ATOMIC CHARGES
----------------------
   0 C :   -0.068898
   1 C :   -0.068902
   2 H :    0.022968
   3 H :    0.022967
   4 H :    0.022966
   5 H :    0.022966
   6 H :    0.022966
   7 H :    0.022966

  Mayer bond orders larger than 0.1
B(  0-C ,  1-C ) :   1.0652 B(  0-C ,  2-H ) :   0.9843 B(  0-C ,  3-H ) :   0.9843
B(  0-C ,  4-H ) :   0.9843 B(  1-C ,  5-H ) :   0.9843 B(  1-C ,  6-H ) :   0.9843
B(  1-C ,  7-H ) :   0.9843

E(0)                                       ...    -79.233036328
E(0)                                       ...    -79.233036328
E(CORR)(strong-pairs)                      ...     -0.341446061
E(CORR)(weak-pairs)                        ...     -0.000034669
E(CORR)(corrected)                         ...     -0.341480730
E(TOT)                                     ...    -79.574517058
E(CCSD(T))                                 ...    -79.582824427
FINAL SINGLE POINT ENERGY       -79.582824426918

DIPOLE MOMENT
-------------
                                X             Y             Z
Electronic contribution:     -0.00000      -0.00004      -0.00006
Nuclear contribution   :     -0.00000       0.00004       0.00005
                        -----------------------------------------
Total Dipole Moment    :     -0.00000       0.00000      -0.00000
                        -----------------------------------------
Magnitude (a.u.)       :      0.00000
Magnitude (Debye)      :      0.00001

Rotational constants in cm-1:     2.573392     0.659203     0.659203
Rotational constants in MHz : 77148.351001 19762.419652 19762.399607

                             ****ORCA TERMINATED NORMALLY****
TOTAL RUN TIME: 0 days 0 hours 0 minutes 29 seconds 823 msec
