                         Program Version 4.1.x  -  STABLE  -
|  1> ! RHF DLPNO-CCSD(T) cc-pVDZ RIJK cc-pVTZ/JK cc-pVDZ/C
|  2> ! KDIIS SOSCF TightSCF TightPNO
|  3>
|  4> %pal nprocs 4 end
|  5>
|  6> %maxcore 8000
|  7>
|  8> %scf maxiter 300
|  9>      shift shift 0.2 erroff 0.1 end
| 10> end
| 11>
| 12> * xyzfile 0 1 ethanol_a.xyz
| 13>
| 14>
| 15>                          ****END OF INPUT****

CARTESIAN COORDINATES (ANGSTROEM)
---------------------------------
  C     -1.225110   -0.223750    0.000010
  C      0.081930    0.550400   -0.000010
  O      1.155680   -0.396400   -0.000020
  H      1.997020    0.076890    0.000160
  H      0.139930    1.195790   -0.889470
  H      0.139940    1.195810    0.889440
  H     -1.293330   -0.861280    0.887020
  H     -1.293340   -0.861320   -0.886980
  H     -2.076600    0.465400    0.000000

 Total Charge           Charge          ....    0
 Multiplicity           Mult            ....    1
 Number of Electrons    NEL             ....   26
 Basis Dimension        Dim             ....   72

ORBITAL ENERGIES
----------------

  NO   OCC          E(Eh)            E(eV)
   0   2.0000     -20.547056      -559.1138
   1   2.0000     -11.278261      -306.8971
   2   2.0000     -11.219575      -305.3002
   3   2.0000      -1.345267       -36.6066
   4   2.0000      -1.008232       -27.4354
   5   2.0000      -0.830604       -22.6019
   6   2.0000      -0.688493       -18.7348
   7   2.0000      -0.638136       -17.3646
   8   2.0000      -0.562556       -15.3079
   9   2.0000      -0.528355       -14.3773
  10   2.0000      -0.520136       -14.1536
  11   2.0000      -0.481868       -13.1123
  12   2.0000      -0.435295       -11.8450
  13   0.0000       0.182215         4.9583
  14   0.0000       0.215193         5.8557
  15   0.0000       0.246414         6.7053
  16   0.0000       0.248549         6.7634
  17   0.0000       0.268298         7.3008

MULLIKEN ATOMIC CHARGES
-----------------------
   0 C :   -0.063978
   1 C :    0.152804
   2 O :   -0.393216
   3 H :    0.163471
   4 H :    0.015646
   5 H :    0.015645
   6 H :    0.042227
   7 H :    0.042230
   8 H :    0.025172
Sum of atomic charges:    0.0000000

LOEWDIN ATOMIC CHARGES
----------------------
   0 C :   -0.055906
   1 C :    0.015624
   2 O :   -0.092445
   3 H :    0.046377
   4 H :    0.005433
   5 H :    0.005433
   6 H :    0.026026
   7 H :    0.026028
   8 H :    0.023432

  Mayer bond orders larger than 0.1
B(  0-C ,  1-C ) :   1.0710 B(  0-C ,  6-H ) :   0.9799 B(  0-C ,  7-H ) :   0.9799
B(  0-C ,  8-H ) :   0.9789 B(  1-C ,  2-O ) :   0.9933 B(  1-C ,  4-H ) :   0.9703
B(  1-C ,  5-H ) :   0.9703 B(  2-O ,  3-H ) :   1.0002

E(0)                                       ...   -154.091724589
E(0)                                       ...   -154.091724589
E(CORR)(strong-pairs)                      ...     -0.518998863
E(CORR)(weak-pairs)                        ...     -0.000087732
E(CORR)(corrected)                         ...     -0.519086595
E(TOT)                                     ...   -154.610811184
E(CCSD(T))                                 ...   -154.622931317
FINAL SINGLE POINT ENERGY      -154.622931316976

DIPOLE MOMENT
-------------
                                X             Y             Z
Electronic contribution:      2.57507      -0.61456      -0.00005
Nuclear contribution   :     -2.51008       1.27726       0.00018
                        -----------------------------------------
Total Dipole Moment    :      0.06499       0.66270       0.00013
                        -----------------------------------------
Magnitude (a.u.)       :      0.66588
Magnitude (Debye)      :      1.69253

Rotational constants in cm-1:     1.167715     0.309967     0.269897
Rotational constants in MHz : 35007.224030  9292.577865  8091.298308

                             ****ORCA TERMINATED NORMALLY****
TOTAL RUN TIME: 0 days 0 hours 0 minutes 25 seconds 277 msec
