                         Program Version 4.1.x  -  STABLE  -
|  1> ! RHF DLPNO-CCSD(T) cc-pVDZ RIJK cc-pVTZ/JK cc-pVDZ/C
|  2> ! KDIIS SOSCF TightSCF TightPNO
|  3>
|  4> %pal nprocs 4 end
|  5>
|  6> %maxcore 8000
|  7>
|  8> %scf maxiter 300
|  9>      shift shift 0.2 erroff 0.1 end
| 10> end
| 11>
| 12> * xyzfile 0 1 ethane_ecl.xyz
| 13>
| 14>
| 15>                          ****END OF INPUT****

CARTESIAN COORDINATES (ANGSTROEM)
---------------------------------
  C      0.024900    0.151560   -0.751760
  C     -0.024900   -0.151560    0.751760
  H      0.322130    1.208420   -0.944820
  H      0.759800   -0.502900   -1.275370
  H     -0.967610   -0.009290   -1.233050
  H     -1.043820   -0.473510    1.069100
  H      0.683610   -0.967000    1.026810
  H      0.245870    0.744280    1.357330

 Total Charge           Charge          ....    0
 Multiplicity           Mult            ....    1
 Number of Electrons    NEL             ....   18
 Basis Dimension        Dim             ....   58

ORBITAL ENERGIES
----------------

  NO   OCC          E(Eh)            E(eV)
   0   2.0000     -11.226643      -305.4925
   1   2.0000     -11.226080      -305.4772
   2   2.0000      -1.010005       -27.4836
   3   2.0000      -0.832274       -22.6473
   4   2.0000      -0.589113       -16.0306
   5   2.0000      -0.589110       -16.0305
   6   2.0000      -0.507259       -13.8032
   7   2.0000      -0.476784       -12.9740
   8   2.0000      -0.476782       -12.9739
   9   0.0000       0.184474         5.0198
  10   0.0000       0.231244         6.2925
  11   0.0000       0.231245         6.2925
  12   0.0000       0.231741         6.3060
  13   0.0000       0.320300         8.7158

MULLIKEN ATOMIC CHARGES
-----------------------
   0 C :   -0.113445
   1 C :   -0.113439
   2 H :    0.037814
   3 H :    0.037817
   4 H :    0.037813
   5 H :    0.037815
   6 H :    0.037812
   7 H :    0.037814
Sum of atomic charges:    0.0000000

LOEWDIN ATOMIC CHARGES
----------------------
   0 C :   -0.072200
   1 C :   -0.072199
   2 H :    0.024067
   3 H :    0.024066
   4 H :    0.024067
   5 H :    0.024066
   6 H :    0.024067
   7 H :    0.024066

  Mayer bond orders larger than 0.1
B(  0-C ,  1-C ) :   1.0394 B(  0-C ,  2-H ) :   0.9895 B(  0-C ,  3-H ) :   0.9895
B(  0-C ,  4-H ) :   0.9895 B(  1-C ,  5-H ) :   0.9895 B(  1-C ,  6-H ) :   0.9895
B(  1-C ,  7-H ) :   0.9895

E(0)                                       ...    -79.227621215
E(0)                                       ...    -79.227621215
E(CORR)(strong-pairs)                      ...     -0.341710056
E(CORR)(weak-pairs)                        ...     -0.000036139
E(CORR)(corrected)                         ...     -0.341746196
E(TOT)                                     ...    -79.569367411
E(CCSD(T))                                 ...    -79.577641718
FINAL SINGLE POINT ENERGY       -79.577641717960

DIPOLE MOMENT
-------------
                                X             Y             Z
Electronic contribution:      0.00001       0.00000       0.00000
Nuclear contribution   :     -0.00001       0.00000      -0.00000
                        -----------------------------------------
Total Dipole Moment    :     -0.00000       0.00000       0.00000
                        -----------------------------------------
Magnitude (a.u.)       :      0.00000
Magnitude (Debye)      :      0.00001

Rotational constants in cm-1:     2.589338     0.654773     0.654772
Rotational constants in MHz : 77626.414182 19629.605950 19629.576974

                             ****ORCA TERMINATED NORMALLY****
TOTAL RUN TIME: 0 days 0 hours 0 minutes 29 seconds 906 msec
