                         Program Version 4.1.x  -  STABLE  -
|  1> ! RHF DLPNO-CCSD(T) cc-pVDZ RIJK cc-pVTZ/JK cc-pVDZ/C
|  2> ! KDIIS SOSCF TightSCF TightPNO
|  3>
|  4> %pal nprocs 4 end
|  5>
|  6> %maxcore 8000
|  7>
|  8> %scf maxiter 300
|  9>      shift shift 0.2 erroff 0.1 end
| 10> end
| 11>
| 12> * xyzfile 0 1 ethanol_g.xyz
| 13>
| 14>
| 15>                          ****END OF INPUT****

CARTESIAN COORDINATES (ANGSTROEM)
---------------------------------
  C     -1.218460   -0.241620   -0.021460
  C      0.079630    0.556850    0.047250
  O      1.244580   -0.257500   -0.108760
  H      1.270610   -0.903570    0.609120
  H      0.127880    1.279500   -0.772630
  H      0.131360    1.123760    0.989140
  H     -1.284200   -0.964120    0.801650
  H     -1.283670   -0.792090   -0.965260
  H     -2.085590    0.425120    0.053320

 Total Charge           Charge          ....    0
 Multiplicity           Mult            ....    1
 Number of Electrons    NEL             ....   26
 Basis Dimension        Dim             ....   72

ORBITAL ENERGIES
----------------

  NO   OCC          E(Eh)            E(eV)
   0   2.0000     -20.548159      -559.1438
   1   2.0000     -11.278308      -306.8984
   2   2.0000     -11.226208      -305.4806
   3   2.0000      -1.346471       -36.6393
   4   2.0000      -1.008985       -27.4559
   5   2.0000      -0.843942       -22.9648
   6   2.0000      -0.677748       -18.4425
   7   2.0000      -0.615308       -16.7434
   8   2.0000      -0.600343       -16.3362
   9   2.0000      -0.539914       -14.6918
  10   2.0000      -0.520476       -14.1629
  11   2.0000      -0.476533       -12.9671
  12   2.0000      -0.436430       -11.8759
  13   0.0000       0.178889         4.8678
  14   0.0000       0.219146         5.9633
  15   0.0000       0.233854         6.3635
  16   0.0000       0.252591         6.8733
  17   0.0000       0.264514         7.1978

MULLIKEN ATOMIC CHARGES
-----------------------
   0 C :   -0.085253
   1 C :    0.168489
   2 O :   -0.395774
   3 H :    0.160938
   4 H :    0.038038
   5 H :    0.016408
   6 H :    0.023079
   7 H :    0.044394
   8 H :    0.029682
Sum of atomic charges:   -0.0000000

LOEWDIN ATOMIC CHARGES
----------------------
   0 C :   -0.068233
   1 C :    0.015164
   2 O :   -0.087510
   3 H :    0.043885
   4 H :    0.021166
   5 H :    0.006079
   6 H :    0.017780
   7 H :    0.025737
   8 H :    0.025931

  Mayer bond orders larger than 0.1
B(  0-C ,  1-C ) :   1.0628 B(  0-C ,  6-H ) :   0.9799 B(  0-C ,  7-H ) :   0.9791
B(  0-C ,  8-H ) :   0.9760 B(  1-C ,  2-O ) :   0.9783 B(  1-C ,  4-H ) :   0.9747
B(  1-C ,  5-H ) :   0.9734 B(  2-O ,  3-H ) :   1.0022

E(0)                                       ...   -154.091649273
E(0)                                       ...   -154.091649273
E(CORR)(strong-pairs)                      ...     -0.519501564
E(CORR)(weak-pairs)                        ...     -0.000085109
E(CORR)(corrected)                         ...     -0.519586673
E(TOT)                                     ...   -154.611235946
E(CCSD(T))                                 ...   -154.623465572
FINAL SINGLE POINT ENERGY      -154.623465571760

DIPOLE MOMENT
-------------
                                X             Y             Z
Electronic contribution:      2.79038      -0.23463      -0.27214
Nuclear contribution   :     -3.29002       0.17441       0.75639
                        -----------------------------------------
Total Dipole Moment    :     -0.49964      -0.06022       0.48425
                        -----------------------------------------
Magnitude (a.u.)       :      0.69840
Magnitude (Debye)      :      1.77520

Rotational constants in cm-1:     1.144874     0.303195     0.268121
Rotational constants in MHz : 34322.458415  9089.556286  8038.070575

                             ****ORCA TERMINATED NORMALLY****
TOTAL RUN TIME: 0 days 0 hours 0 minutes 22 seconds 859 msec
