                         Program Version 4.1.x  -  STABLE  -
|  1> ! RHF DLPNO-CCSD(T) cc-pVDZ RIJK cc-pVTZ/JK cc-pVDZ/C
|  2> ! KDIIS SOSCF TightSCF TightPNO
|  3>
|  4> %pal nprocs 4 end
|  5>
|  6> %maxcore 8000
|  7>
|  8> %scf maxiter 300
|  9>      shift shift 0.2 erroff 0.1 end
| 10> end
| 11>
| 12> * xyzfile 0 1 ethanethiol_a.xyz
| 13>
| 14>
| 15>                          ****END OF INPUT****

CARTESIAN COORDINATES (ANGSTROEM)
---------------------------------
  C      1.645370   -0.335440    0.000000
  C      0.497070    0.672140   -0.000000
  S     -1.116150   -0.233020   -0.000000
  H     -1.916490    0.852670    0.000020
  H      0.545510    1.308210    0.888050
  H      0.545500    1.308220   -0.888050
  H      1.612060   -0.976640   -0.886750
  H      1.612070   -0.976630    0.886770
  H      2.605140    0.192380   -0.000020

 Total Charge           Charge          ....    0
 Multiplicity           Mult            ....    1
 Number of Electrons    NEL             ....   34
 Basis Dimension        Dim             ....   76

ORBITAL ENERGIES
----------------

  NO   OCC          E(Eh)            E(eV)
   0   2.0000     -91.944213     -2501.9292
   1   2.0000     -11.268544      -306.6327
   2   2.0000     -11.235646      -305.7375
   3   2.0000      -8.946737      -243.4531
   4   2.0000      -6.628791      -180.3786
   5   2.0000      -6.627319      -180.3385
   6   2.0000      -6.624988      -180.2751
   7   2.0000      -1.065071       -28.9821
   8   2.0000      -0.940001       -25.5787
   9   2.0000      -0.816668       -22.2227
  10   2.0000      -0.627460       -17.0741
  11   2.0000      -0.610135       -16.6026
  12   2.0000      -0.538430       -14.6514
  13   2.0000      -0.512017       -13.9327
  14   2.0000      -0.497355       -13.5337
  15   2.0000      -0.442162       -12.0319
  16   2.0000      -0.351352        -9.5608
  17   0.0000       0.155443         4.2298
  18   0.0000       0.200928         5.4675
  19   0.0000       0.223732         6.0881
  20   0.0000       0.238048         6.4776
  21   0.0000       0.238261         6.4834

MULLIKEN ATOMIC CHARGES
-----------------------
   0 C :   -0.055803
   1 C :   -0.172416
   2 S :   -0.116804
   3 H :    0.070773
   4 H :    0.067072
   5 H :    0.067073
   6 H :    0.049008
   7 H :    0.049010
   8 H :    0.042087
Sum of atomic charges:   -0.0000000

LOEWDIN ATOMIC CHARGES
----------------------
   0 C :   -0.063576
   1 C :   -0.123214
   2 S :    0.093409
   3 H :   -0.024186
   4 H :    0.018752
   5 H :    0.018753
   6 H :    0.026161
   7 H :    0.026164
   8 H :    0.027735

  Mayer bond orders larger than 0.1
B(  0-C ,  1-C ) :   1.0492 B(  0-C ,  6-H ) :   0.9805 B(  0-C ,  7-H ) :   0.9805
B(  0-C ,  8-H ) :   0.9818 B(  1-C ,  2-S ) :   1.0182 B(  1-C ,  4-H ) :   0.9693
B(  1-C ,  5-H ) :   0.9693 B(  2-S ,  3-H ) :   0.9790

E(0)                                       ...   -476.763381879
E(0)                                       ...   -476.763381879
E(CORR)(strong-pairs)                      ...     -0.477653775
E(CORR)(weak-pairs)                        ...     -0.000073055
E(CORR)(corrected)                         ...     -0.477726831
E(TOT)                                     ...   -477.241108710
E(CCSD(T))                                 ...   -477.253940959
FINAL SINGLE POINT ENERGY      -477.253940958569

DIPOLE MOMENT
-------------
                                X             Y             Z
Electronic contribution:     -4.77564      -1.20312      -0.00001
Nuclear contribution   :      5.17807       1.76300       0.00002
                        -----------------------------------------
Total Dipole Moment    :      0.40243       0.55988       0.00000
                        -----------------------------------------
Magnitude (a.u.)       :      0.68950
Magnitude (Debye)      :      1.75257

Rotational constants in cm-1:     0.952686     0.178060     0.159007
Rotational constants in MHz : 28560.808057  5338.117190  4766.908501

                             ****ORCA TERMINATED NORMALLY****
TOTAL RUN TIME: 0 days 0 hours 0 minutes 14 seconds 954 msec
