                         Program Version 4.1.x  -  STABLE  -
|  1> ! RHF DLPNO-CCSD(T) cc-pVDZ RIJK cc-pVTZ/JK cc-pVDZ/C
|  2> ! KDIIS SOSCF TightSCF TightPNO
|  3>
|  4> %pal nprocs 4 end
|  5>
|  6> %maxcore 8000
|  7>
|  8> %scf maxiter 300
|  9>      shift shift 0.2 erroff 0.1 end
| 10> end
| 11>
| 12> * xyzfile 0 1 ethanethiol_ecl.xyz
| 13>
| 14>
| 15>                          ****END OF INPUT****

CARTESIAN COORDINATES (ANGSTROEM)
---------------------------------
  C     -0.564740    0.691230    0.079110
  S      1.167600   -0.080390   -0.077290
  H      1.632490   -0.987430    0.800100
  H     -0.640750    1.222050    1.056360
  H     -0.696630    1.449810   -0.726940
  C     -1.632640   -0.408650   -0.031500
  H     -1.210490   -1.428850   -0.179130
  H     -2.261640   -0.449300    0.887860
  H     -2.320330   -0.215550   -0.887270

 Total Charge           Charge          ....    0
 Multiplicity           Mult            ....    1
 Number of Electrons    NEL             ....   34
 Basis Dimension        Dim             ....   76

ORBITAL ENERGIES
----------------

  NO   OCC          E(Eh)            E(eV)
   0   2.0000     -91.938265     -2501.7674
   1   2.0000     -11.289668      -307.2075
   2   2.0000     -11.240572      -305.8715
   3   2.0000      -8.940748      -243.2901
   4   2.0000      -6.623177      -180.2258
   5   2.0000      -6.621255      -180.1735
   6   2.0000      -6.619383      -180.1226
   7   2.0000      -1.054190       -28.6860
   8   2.0000      -0.929870       -25.3031
   9   2.0000      -0.825726       -22.4692
  10   2.0000      -0.625423       -17.0186
  11   2.0000      -0.594081       -16.1658
  12   2.0000      -0.548956       -14.9379
  13   2.0000      -0.518513       -14.1094
  14   2.0000      -0.502397       -13.6709
  15   2.0000      -0.399752       -10.8778
  16   2.0000      -0.347383        -9.4528
  17   0.0000       0.146108         3.9758
  18   0.0000       0.174448         4.7470
  19   0.0000       0.211067         5.7434
  20   0.0000       0.219529         5.9737
  21   0.0000       0.223182         6.0731

MULLIKEN ATOMIC CHARGES
-----------------------
   0 C :   -0.169694
   1 S :   -0.177290
   2 H :    0.087233
   3 H :    0.083402
   4 H :    0.096877
   5 C :   -0.064504
   6 H :    0.060575
   7 H :    0.040425
   8 H :    0.042977
Sum of atomic charges:   -0.0000000

LOEWDIN ATOMIC CHARGES
----------------------
   0 C :   -0.103631
   1 S :    0.047101
   2 H :   -0.017888
   3 H :    0.027587
   4 H :    0.042526
   5 C :   -0.077630
   6 H :    0.028374
   7 H :    0.025965
   8 H :    0.027597

  Mayer bond orders larger than 0.1
B(  0-C ,  1-S ) :   0.9856 B(  0-C ,  3-H ) :   0.9733 B(  0-C ,  4-H ) :   0.9732
B(  0-C ,  5-C ) :   1.0033 B(  1-S ,  2-H ) :   0.9672 B(  5-C ,  6-H ) :   0.9867
B(  5-C ,  7-H ) :   0.9849 B(  5-C ,  8-H ) :   0.9851

E(0)                                       ...   -476.731367552
E(0)                                       ...   -476.731367552
E(CORR)(strong-pairs)                      ...     -0.480459327
E(CORR)(weak-pairs)                        ...     -0.000073072
E(CORR)(corrected)                         ...     -0.480532398
E(TOT)                                     ...   -477.211899951
E(CCSD(T))                                 ...   -477.225201716
FINAL SINGLE POINT ENERGY      -477.225201716142

DIPOLE MOMENT
-------------
                                X             Y             Z
Electronic contribution:      5.00906       0.39203      -0.59209
Nuclear contribution   :     -5.68696      -0.41807       0.97983
                        -----------------------------------------
Total Dipole Moment    :     -0.67790      -0.02605       0.38773
                        -----------------------------------------
Magnitude (a.u.)       :      0.78138
Magnitude (Debye)      :      1.98612

Rotational constants in cm-1:     0.885726     0.170487     0.153778
Rotational constants in MHz : 26553.385608  5111.082105  4610.139213

                             ****ORCA TERMINATED NORMALLY****
TOTAL RUN TIME: 0 days 0 hours 0 minutes 17 seconds 589 msec
