                         Program Version 4.1.x  -  STABLE  -
|  1> ! RHF DLPNO-CCSD(T) cc-pVDZ RIJK cc-pVTZ/JK cc-pVDZ/C
|  2> ! KDIIS SOSCF TightSCF TightPNO
|  3>
|  4> %pal nprocs 4 end
|  5>
|  6> %maxcore 8000
|  7>
|  8> %scf maxiter 300
|  9>      shift shift 0.2 erroff 0.1 end
| 10> end
| 11>
| 12> * xyzfile 0 1 ethanethiol_g.xyz
| 13>
| 14>
| 15>                          ****END OF INPUT****

CARTESIAN COORDINATES (ANGSTROEM)
---------------------------------
  C     -1.652080   -0.352040   -0.053740
  C     -0.504630    0.644840    0.091430
  S      1.175060   -0.099080   -0.080030
  H      1.085600   -0.936440    0.974300
  H     -0.541910    1.398000   -0.701480
  H     -0.559050    1.177410    1.045180
  H     -1.624800   -1.107370    0.738990
  H     -1.604620   -0.870870   -1.015620
  H     -2.615850    0.167700    0.012930

 Total Charge           Charge          ....    0
 Multiplicity           Mult            ....    1
 Number of Electrons    NEL             ....   34
 Basis Dimension        Dim             ....   76

ORBITAL ENERGIES
----------------

  NO   OCC          E(Eh)            E(eV)
   0   2.0000     -91.945198     -2501.9560
   1   2.0000     -11.269164      -306.6495
   2   2.0000     -11.234861      -305.7161
   3   2.0000      -8.947696      -243.4792
   4   2.0000      -6.629741      -180.4044
   5   2.0000      -6.628260      -180.3641
   6   2.0000      -6.625982      -180.3021
   7   2.0000      -1.065254       -28.9870
   8   2.0000      -0.940438       -25.5906
   9   2.0000      -0.820971       -22.3398
  10   2.0000      -0.632443       -17.2096
  11   2.0000      -0.587046       -15.9743
  12   2.0000      -0.551029       -14.9943
  13   2.0000      -0.521152       -14.1813
  14   2.0000      -0.494167       -13.4470
  15   2.0000      -0.440860       -11.9964
  16   2.0000      -0.352374        -9.5886
  17   0.0000       0.157283         4.2799
  18   0.0000       0.198869         5.4115
  19   0.0000       0.216577         5.8934
  20   0.0000       0.235959         6.4208
  21   0.0000       0.239253         6.5104

MULLIKEN ATOMIC CHARGES
-----------------------
   0 C :   -0.035691
   1 C :   -0.177405
   2 S :   -0.114701
   3 H :    0.067772
   4 H :    0.072092
   5 H :    0.068359
   6 H :    0.035086
   7 H :    0.047897
   8 H :    0.036590
Sum of atomic charges:   -0.0000000

LOEWDIN ATOMIC CHARGES
----------------------
   0 C :   -0.064759
   1 C :   -0.129694
   2 S :    0.101817
   3 H :   -0.026615
   4 H :    0.025801
   5 H :    0.019944
   6 H :    0.021861
   7 H :    0.026181
   8 H :    0.025463

  Mayer bond orders larger than 0.1
B(  0-C ,  1-C ) :   1.0382 B(  0-C ,  6-H ) :   0.9827 B(  0-C ,  7-H ) :   0.9814
B(  0-C ,  8-H ) :   0.9768 B(  1-C ,  2-S ) :   1.0174 B(  1-C ,  4-H ) :   0.9701
B(  1-C ,  5-H ) :   0.9708 B(  2-S ,  3-H ) :   0.9762

E(0)                                       ...   -476.764106930
E(0)                                       ...   -476.764106930
E(CORR)(strong-pairs)                      ...     -0.477965743
E(CORR)(weak-pairs)                        ...     -0.000072087
E(CORR)(corrected)                         ...     -0.478037830
E(TOT)                                     ...   -477.242144761
E(CCSD(T))                                 ...   -477.255048772
FINAL SINGLE POINT ENERGY      -477.255048772231

DIPOLE MOMENT
-------------
                                X             Y             Z
Electronic contribution:      5.43098       0.20280      -0.78283
Nuclear contribution   :     -6.06058      -0.17318       1.08611
                        -----------------------------------------
Total Dipole Moment    :     -0.62960       0.02962       0.30328
                        -----------------------------------------
Magnitude (a.u.)       :      0.69946
Magnitude (Debye)      :      1.77790

Rotational constants in cm-1:     0.961739     0.172127     0.158079
Rotational constants in MHz : 28832.198087  5160.248451  4739.083045

                             ****ORCA TERMINATED NORMALLY****
TOTAL RUN TIME: 0 days 0 hours 0 minutes 15 seconds 637 msec
