                         Program Version 4.1.x  -  STABLE  -
|  1> ! RHF DLPNO-CCSD(T) cc-pVDZ RIJK cc-pVTZ/JK cc-pVDZ/C
|  2> ! KDIIS SOSCF TightSCF TightPNO
|  3>
|  4> %pal nprocs 4 end
|  5>
|  6> %maxcore 8000
|  7>
|  8> %scf maxiter 300
|  9>      shift shift 0.2 erroff 0.1 end
| 10> end
| 11>
| 12> * xyzfile 0 1 ethanol_ecl.xyz
| 13>
| 14>
| 15>                          ****END OF INPUT****

CARTESIAN COORDINATES (ANGSTROEM)
---------------------------------
  C      1.246400   -0.201080    0.000020
  C     -0.103230    0.530950   -0.000030
  O     -1.158910   -0.403920   -0.000060
  H     -1.965900    0.082200    0.000450
  H     -0.222950    1.173780    0.905220
  H     -0.222870    1.173810   -0.905270
  H      1.850380    0.065430    0.898020
  H      1.123090   -1.308520    0.000020
  H      1.850500    0.065470   -0.897890

 Total Charge           Charge          ....    0
 Multiplicity           Mult            ....    1
 Number of Electrons    NEL             ....   26
 Basis Dimension        Dim             ....   72

ORBITAL ENERGIES
----------------

  NO   OCC          E(Eh)            E(eV)
   0   2.0000     -20.543494      -559.0169
   1   2.0000     -11.281621      -306.9885
   2   2.0000     -11.227136      -305.5059
   3   2.0000      -1.358744       -36.9733
   4   2.0000      -0.999485       -27.1974
   5   2.0000      -0.828625       -22.5480
   6   2.0000      -0.694232       -18.8910
   7   2.0000      -0.636078       -17.3086
   8   2.0000      -0.564656       -15.3651
   9   2.0000      -0.523184       -14.2366
  10   2.0000      -0.521431       -14.1889
  11   2.0000      -0.481883       -13.1127
  12   2.0000      -0.426145       -11.5960
  13   0.0000       0.179147         4.8748
  14   0.0000       0.214501         5.8369
  15   0.0000       0.227485         6.1902
  16   0.0000       0.249024         6.7763
  17   0.0000       0.275121         7.4864

MULLIKEN ATOMIC CHARGES
-----------------------
   0 C :   -0.099780
   1 C :    0.143720
   2 O :   -0.366502
   3 H :    0.147475
   4 H :    0.018073
   5 H :    0.018082
   6 H :    0.038311
   7 H :    0.062307
   8 H :    0.038315
Sum of atomic charges:   -0.0000000

LOEWDIN ATOMIC CHARGES
----------------------
   0 C :   -0.067753
   1 C :    0.005750
   2 O :   -0.067286
   3 H :    0.030316
   4 H :    0.005522
   5 H :    0.005522
   6 H :    0.026130
   7 H :    0.035669
   8 H :    0.026130

  Mayer bond orders larger than 0.1
B(  0-C ,  1-C ) :   1.0383 B(  0-C ,  6-H ) :   0.9864 B(  0-C ,  7-H ) :   0.9815
B(  0-C ,  8-H ) :   0.9864 B(  1-C ,  2-O ) :   0.9945 B(  1-C ,  4-H ) :   0.9785
B(  1-C ,  5-H ) :   0.9785 B(  2-O ,  3-H ) :   1.0134

E(0)                                       ...   -154.083827582
E(0)                                       ...   -154.083827582
E(CORR)(strong-pairs)                      ...     -0.519432320
E(CORR)(weak-pairs)                        ...     -0.000087005
E(CORR)(corrected)                         ...     -0.519519326
E(TOT)                                     ...   -154.603346908
E(CCSD(T))                                 ...   -154.615468196
FINAL SINGLE POINT ENERGY      -154.615468196055

DIPOLE MOMENT
-------------
                                X             Y             Z
Electronic contribution:     -2.59601      -0.68723      -0.00021
Nuclear contribution   :      2.53745       1.32046       0.00058
                        -----------------------------------------
Total Dipole Moment    :     -0.05856       0.63322       0.00037
                        -----------------------------------------
Magnitude (a.u.)       :      0.63593
Magnitude (Debye)      :      1.61639

Rotational constants in cm-1:     1.190135     0.302755     0.266355
Rotational constants in MHz : 35679.356613  9076.362553  7985.123792

                             ****ORCA TERMINATED NORMALLY****
TOTAL RUN TIME: 0 days 0 hours 0 minutes 45 seconds 49 msec
