                         Program Version 4.1.x  -  STABLE  -
|  1> ! RHF DLPNO-CCSD(T) cc-pVDZ RIJK cc-pVTZ/JK cc-pVDZ/C
|  2> ! KDIIS SOSCF TightSCF TightPNO
|  3>
|  4> %pal nprocs 4 end
|  5>
|  6> %maxcore 8000
|  7>
|  8> %scf maxiter 300
|  9>      shift shift 0.2 erroff 0.1 end
| 10> end
| 11>
| 12> * xyzfile 0 1 ethylamine_ecl.xyz
| 13>
| 14>
| 15>                          ****END OF INPUT****

CARTESIAN COORDINATES (ANGSTROEM)
---------------------------------
  C     -1.205660   -0.264530    0.000010
  C      0.061070    0.604410   -0.000010
  N      1.255050   -0.205380   -0.000010
  H      1.274690   -0.821210    0.812010
  H      1.274640   -0.821320   -0.811950
  H     -0.965990   -1.352740    0.000010
  H     -1.835260   -0.066020    0.898190
  H     -1.835260   -0.066050   -0.898170
  H      0.084650    1.262830   -0.900440
  H      0.084660    1.262870    0.900410

 Total Charge           Charge          ....    0
 Multiplicity           Mult            ....    1
 Number of Electrons    NEL             ....   26
 Basis Dimension        Dim             ....   77

ORBITAL ENERGIES
----------------

  NO   OCC          E(Eh)            E(eV)
   0   2.0000     -15.532765      -422.6680
   1   2.0000     -11.253093      -306.2122
   2   2.0000     -11.223058      -305.3949
   3   2.0000      -1.175883       -31.9974
   4   2.0000      -0.974096       -26.5065
   5   2.0000      -0.822634       -22.3850
   6   2.0000      -0.663377       -18.0514
   7   2.0000      -0.591441       -16.0939
   8   2.0000      -0.561442       -15.2776
   9   2.0000      -0.560883       -15.2624
  10   2.0000      -0.502773       -13.6812
  11   2.0000      -0.470412       -12.8006
  12   2.0000      -0.376454       -10.2438
  13   0.0000       0.181932         4.9506
  14   0.0000       0.221107         6.0166
  15   0.0000       0.222550         6.0559
  16   0.0000       0.232597         6.3293
  17   0.0000       0.262481         7.1425

MULLIKEN ATOMIC CHARGES
-----------------------
   0 C :   -0.098618
   1 C :    0.046644
   2 N :   -0.294609
   3 H :    0.088992
   4 H :    0.088993
   5 H :    0.023543
   6 H :    0.033307
   7 H :    0.033306
   8 H :    0.039220
   9 H :    0.039222
Sum of atomic charges:    0.0000000

LOEWDIN ATOMIC CHARGES
----------------------
   0 C :   -0.080985
   1 C :   -0.032845
   2 N :   -0.057429
   3 H :    0.033229
   4 H :    0.033229
   5 H :    0.018272
   6 H :    0.022399
   7 H :    0.022399
   8 H :    0.020863
   9 H :    0.020866

  Mayer bond orders larger than 0.1
B(  0-C ,  1-C ) :   1.0219 B(  0-C ,  5-H ) :   0.9894 B(  0-C ,  6-H ) :   0.9845
B(  0-C ,  7-H ) :   0.9845 B(  1-C ,  2-N ) :   1.0408 B(  1-C ,  8-H ) :   0.9794
B(  1-C ,  9-H ) :   0.9794 B(  2-N ,  3-H ) :   0.9911 B(  2-N ,  4-H ) :   0.9911

E(0)                                       ...   -134.252307154
E(0)                                       ...   -134.252307154
E(CORR)(strong-pairs)                      ...     -0.514027907
E(CORR)(weak-pairs)                        ...     -0.000088157
E(CORR)(corrected)                         ...     -0.514116064
E(TOT)                                     ...   -134.766423218
E(CCSD(T))                                 ...   -134.779501259
FINAL SINGLE POINT ENERGY      -134.779501259068

DIPOLE MOMENT
-------------
                                X             Y             Z
Electronic contribution:      1.69046       0.32211      -0.00003
Nuclear contribution   :     -2.06918      -0.65291       0.00007
                        -----------------------------------------
Total Dipole Moment    :     -0.37872      -0.33080       0.00003
                        -----------------------------------------
Magnitude (a.u.)       :      0.50285
Magnitude (Debye)      :      1.27815

Rotational constants in cm-1:     1.001828     0.305943     0.268659
Rotational constants in MHz : 30034.038715  9171.931287  8054.179956

                             ****ORCA TERMINATED NORMALLY****
TOTAL RUN TIME: 0 days 0 hours 1 minutes 5 seconds 59 msec
