                         Program Version 4.1.x  -  STABLE  -
|  1> ! RHF DLPNO-CCSD(T) cc-pVDZ RIJK cc-pVTZ/JK cc-pVDZ/C
|  2> ! KDIIS SOSCF TightSCF TightPNO
|  3>
|  4> %pal nprocs 4 end
|  5>
|  6> %maxcore 8000
|  7>
|  8> %scf maxiter 300
|  9>      shift shift 0.2 erroff 0.1 end
| 10> end
| 11>
| 12> * xyzfile 0 1 ethyl_methyl_ether_g.xyz
| 13>
| 14>
| 15>                          ****END OF INPUT****

CARTESIAN COORDINATES (ANGSTROEM)
---------------------------------
  C     -1.556990    0.517570   -0.088770
  C     -0.598980   -0.621480    0.258970
  O      0.659230   -0.538620   -0.403920
  C      1.533970    0.445930    0.117260
  H     -2.526790    0.349100    0.393540
  H     -1.183970    1.489250    0.250640
  H     -0.439970   -0.671300    1.349150
  H      2.485220    0.333870   -0.408180
  H      1.161630    1.467360   -0.045280
  H      1.702530    0.299090    1.195890
  H     -1.715230    0.567850   -1.170830
  H     -1.025310   -1.578410   -0.058330

 Total Charge           Charge          ....    0
 Multiplicity           Mult            ....    1
 Number of Electrons    NEL             ....   34
 Basis Dimension        Dim             ....   96

ORBITAL ENERGIES
----------------

  NO   OCC          E(Eh)            E(eV)
   0   2.0000     -20.547567      -559.1277
   1   2.0000     -11.277204      -306.8683
   2   2.0000     -11.273921      -306.7790
   3   2.0000     -11.223312      -305.4018
   4   2.0000      -1.362589       -37.0779
   5   2.0000      -1.017571       -27.6895
   6   2.0000      -0.924716       -25.1628
   7   2.0000      -0.819286       -22.2939
   8   2.0000      -0.655527       -17.8378
   9   2.0000      -0.652532       -17.7563
  10   2.0000      -0.619370       -16.8539
  11   2.0000      -0.564651       -15.3649
  12   2.0000      -0.547624       -14.9016
  13   2.0000      -0.522368       -14.2143
  14   2.0000      -0.497462       -13.5366
  15   2.0000      -0.458969       -12.4892
  16   2.0000      -0.412891       -11.2353
  17   0.0000       0.181829         4.9478
  18   0.0000       0.217886         5.9290
  19   0.0000       0.227595         6.1932
  20   0.0000       0.244765         6.6604
  21   0.0000       0.266718         7.2578

MULLIKEN ATOMIC CHARGES
-----------------------
   0 C :   -0.076318
   1 C :    0.170587
   2 O :   -0.491965
   3 C :    0.174615
   4 H :    0.029345
   5 H :    0.031287
   6 H :    0.012006
   7 H :    0.041944
   8 H :    0.016665
   9 H :    0.013385
  10 H :    0.043713
  11 H :    0.034736
Sum of atomic charges:   -0.0000000

LOEWDIN ATOMIC CHARGES
----------------------
   0 C :   -0.064802
   1 C :    0.014876
   2 O :   -0.090664
   3 C :    0.010847
   4 H :    0.025869
   5 H :    0.019416
   6 H :    0.004836
   7 H :    0.022220
   8 H :    0.004951
   9 H :    0.005867
  10 H :    0.025889
  11 H :    0.020693

  Mayer bond orders larger than 0.1
B(  0-C ,  1-C ) :   1.0610 B(  0-C ,  4-H ) :   0.9779 B(  0-C ,  5-H ) :   0.9797
B(  0-C , 10-H ) :   0.9785 B(  1-C ,  2-O ) :   0.9612 B(  1-C ,  6-H ) :   0.9699
B(  1-C , 11-H ) :   0.9801 B(  2-O ,  3-C ) :   0.9768 B(  3-C ,  7-H ) :   0.9951
B(  3-C ,  8-H ) :   0.9810 B(  3-C ,  9-H ) :   0.9803

E(0)                                       ...   -193.115503303
E(0)                                       ...   -193.115503303
E(CORR)(strong-pairs)                      ...     -0.674216668
E(CORR)(weak-pairs)                        ...     -0.000157009
E(CORR)(corrected)                         ...     -0.674373678
E(TOT)                                     ...   -193.789876981
E(CCSD(T))                                 ...   -193.807121327
FINAL SINGLE POINT ENERGY      -193.807121326975

DIPOLE MOMENT
-------------
                                X             Y             Z
Electronic contribution:      1.46006      -2.03463      -1.16987
Nuclear contribution   :     -1.62727       2.38894       1.59406
                        -----------------------------------------
Total Dipole Moment    :     -0.16720       0.35431       0.42419
                        -----------------------------------------
Magnitude (a.u.)       :      0.57743
Magnitude (Debye)      :      1.46772

Rotational constants in cm-1:     0.535565     0.168819     0.147798
Rotational constants in MHz : 16055.826548  5061.080531  4430.886756

                             ****ORCA TERMINATED NORMALLY****
TOTAL RUN TIME: 0 days 0 hours 0 minutes 39 seconds 419 msec
