                         Program Version 4.1.x  -  STABLE  -
|  1> ! RHF DLPNO-CCSD(T) cc-pVDZ RIJK cc-pVTZ/JK cc-pVDZ/C
|  2> ! KDIIS SOSCF TightSCF TightPNO
|  3>
|  4> %pal nprocs 4 end
|  5>
|  6> %maxcore 8000
|  7>
|  8> %scf maxiter 300
|  9>      shift shift 0.2 erroff 0.1 end
| 10> end
| 11>
| 12> * xyzfile 0 1 ethylphosphine_g.xyz
| 13>
| 14>
| 15>                          ****END OF INPUT****

CARTESIAN COORDINATES (ANGSTROEM)
---------------------------------
  C      0.521540    0.663760    0.045220
  C      1.685030   -0.334030   -0.014990
  P     -1.147380   -0.197690   -0.113960
  H     -1.966700    0.908750    0.254080
  H     -1.183690   -0.772840    1.190350
  H      0.588100    1.366040   -0.794150
  H      0.570020    1.255270    0.964770
  H      2.648150    0.187290    0.021280
  H      1.656430   -1.032680    0.828880
  H      1.659000   -0.924830   -0.937200

 Total Charge           Charge          ....    0
 Multiplicity           Mult            ....    1
 Number of Electrons    NEL             ....   34
 Basis Dimension        Dim             ....   81

ORBITAL ENERGIES
----------------

  NO   OCC          E(Eh)            E(eV)
   0   2.0000     -79.939691     -2175.2696
   1   2.0000     -11.240617      -305.8727
   2   2.0000     -11.231407      -305.6221
   3   2.0000      -7.481283      -203.5761
   4   2.0000      -5.375250      -146.2680
   5   2.0000      -5.375107      -146.2641
   6   2.0000      -5.373334      -146.2159
   7   2.0000      -1.035873       -28.1875
   8   2.0000      -0.879244       -23.9254
   9   2.0000      -0.776916       -21.1410
  10   2.0000      -0.616350       -16.7717
  11   2.0000      -0.586529       -15.9603
  12   2.0000      -0.531832       -14.4719
  13   2.0000      -0.506134       -13.7726
  14   2.0000      -0.484081       -13.1725
  15   2.0000      -0.450694       -12.2640
  16   2.0000      -0.357797        -9.7361
  17   0.0000       0.152972         4.1626
  18   0.0000       0.180203         4.9036
  19   0.0000       0.217317         5.9135
  20   0.0000       0.221544         6.0285
  21   0.0000       0.237166         6.4536

MULLIKEN ATOMIC CHARGES
-----------------------
   0 C :   -0.248558
   1 C :   -0.056008
   2 P :    0.139236
   3 H :   -0.032426
   4 H :   -0.033836
   5 H :    0.055699
   6 H :    0.056311
   7 H :    0.039362
   8 H :    0.037369
   9 H :    0.042849
Sum of atomic charges:    0.0000000

LOEWDIN ATOMIC CHARGES
----------------------
   0 C :   -0.162726
   1 C :   -0.065614
   2 P :    0.249146
   3 H :   -0.063139
   4 H :   -0.064920
   5 H :    0.020397
   6 H :    0.017472
   7 H :    0.024558
   8 H :    0.021757
   9 H :    0.023069

  Mayer bond orders larger than 0.1
B(  0-C ,  1-C ) :   1.0443 B(  0-C ,  2-P ) :   1.0118 B(  0-C ,  5-H ) :   0.9667
B(  0-C ,  6-H ) :   0.9707 B(  1-C ,  7-H ) :   0.9835 B(  1-C ,  8-H ) :   0.9829
B(  1-C ,  9-H ) :   0.9811 B(  2-P ,  3-H ) :   0.9728 B(  2-P ,  4-H ) :   0.9692

E(0)                                       ...   -420.544472822
E(0)                                       ...   -420.544472822
E(CORR)(strong-pairs)                      ...     -0.474156484
E(CORR)(weak-pairs)                        ...     -0.000076563
E(CORR)(corrected)                         ...     -0.474233048
E(TOT)                                     ...   -421.018705870
E(CCSD(T))                                 ...   -421.031756021
FINAL SINGLE POINT ENERGY      -421.031756021137

DIPOLE MOMENT
-------------
                                X             Y             Z
Electronic contribution:     -4.89097      -0.93524      -1.44881
Nuclear contribution   :      5.21114       1.20941       1.68408
                        -----------------------------------------
Total Dipole Moment    :      0.32017       0.27416       0.23527
                        -----------------------------------------
Magnitude (a.u.)       :      0.48273
Magnitude (Debye)      :      1.22700

Rotational constants in cm-1:     0.858852     0.166244     0.151738
Rotational constants in MHz : 25747.736962  4983.871477  4548.992229

                             ****ORCA TERMINATED NORMALLY****
TOTAL RUN TIME: 0 days 0 hours 0 minutes 15 seconds 998 msec
