                         Program Version 4.1.x  -  STABLE  -
|  1> ! RHF DLPNO-CCSD(T) cc-pVDZ RIJK cc-pVTZ/JK cc-pVDZ/C
|  2> ! KDIIS SOSCF TightSCF TightPNO
|  3>
|  4> %pal nprocs 4 end
|  5>
|  6> %maxcore 8000
|  7>
|  8> %scf maxiter 300
|  9>      shift shift 0.2 erroff 0.1 end
| 10> end
| 11>
| 12> * xyzfile 0 1 ethylamine_anti.xyz
| 13>
| 14>
| 15>                          ****END OF INPUT****

CARTESIAN COORDINATES (ANGSTROEM)
---------------------------------
  C      1.197660   -0.270230    0.000010
  C     -0.057350    0.609150   -0.000010
  N     -1.249150   -0.203130   -0.000020
  H     -1.267330   -0.819310   -0.811790
  H     -1.267460   -0.819140    0.811890
  H      2.122010    0.352810    0.000010
  H      1.227730   -0.925460    0.901200
  H      1.227750   -0.925480   -0.901180
  H     -0.070280    1.262510    0.904300
  H     -0.070270    1.262490   -0.904340

 Total Charge           Charge          ....    0
 Multiplicity           Mult            ....    1
 Number of Electrons    NEL             ....   26
 Basis Dimension        Dim             ....   77

ORBITAL ENERGIES
----------------

  NO   OCC          E(Eh)            E(eV)
   0   2.0000     -15.533737      -422.6945
   1   2.0000     -11.254134      -306.2406
   2   2.0000     -11.225250      -305.4546
   3   2.0000      -1.177102       -32.0306
   4   2.0000      -0.975507       -26.5449
   5   2.0000      -0.821909       -22.3653
   6   2.0000      -0.666430       -18.1345
   7   2.0000      -0.593667       -16.1545
   8   2.0000      -0.559803       -15.2330
   9   2.0000      -0.557747       -15.1771
  10   2.0000      -0.503592       -13.7034
  11   2.0000      -0.478221       -13.0130
  12   2.0000      -0.377314       -10.2672
  13   0.0000       0.179864         4.8943
  14   0.0000       0.222300         6.0491
  15   0.0000       0.224075         6.0974
  16   0.0000       0.237006         6.4493
  17   0.0000       0.269996         7.3470

MULLIKEN ATOMIC CHARGES
-----------------------
   0 C :   -0.087495
   1 C :    0.046770
   2 N :   -0.291975
   3 H :    0.088455
   4 H :    0.088457
   5 H :    0.025888
   6 H :    0.027022
   7 H :    0.027024
   8 H :    0.037926
   9 H :    0.037926
Sum of atomic charges:    0.0000000

LOEWDIN ATOMIC CHARGES
----------------------
   0 C :   -0.076828
   1 C :   -0.033067
   2 N :   -0.057778
   3 H :    0.034214
   4 H :    0.034219
   5 H :    0.020784
   6 H :    0.018349
   7 H :    0.018351
   8 H :    0.020878
   9 H :    0.020878

  Mayer bond orders larger than 0.1
B(  0-C ,  1-C ) :   1.0521 B(  0-C ,  5-H ) :   0.9775 B(  0-C ,  6-H ) :   0.9807
B(  0-C ,  7-H ) :   0.9807 B(  1-C ,  2-N ) :   1.0369 B(  1-C ,  8-H ) :   0.9734
B(  1-C ,  9-H ) :   0.9734 B(  2-N ,  3-H ) :   0.9905 B(  2-N ,  4-H ) :   0.9905

E(0)                                       ...   -134.259158476
E(0)                                       ...   -134.259158476
E(CORR)(strong-pairs)                      ...     -0.513846272
E(CORR)(weak-pairs)                        ...     -0.000089988
E(CORR)(corrected)                         ...     -0.513936260
E(TOT)                                     ...   -134.773094736
E(CCSD(T))                                 ...   -134.786215188
FINAL SINGLE POINT ENERGY      -134.786215187896

DIPOLE MOMENT
-------------
                                X             Y             Z
Electronic contribution:     -1.68352       0.33407      -0.00003
Nuclear contribution   :      2.05222      -0.66368       0.00011
                        -----------------------------------------
Total Dipole Moment    :      0.36870      -0.32961       0.00008
                        -----------------------------------------
Magnitude (a.u.)       :      0.49456
Magnitude (Debye)      :      1.25706

Rotational constants in cm-1:     0.995516     0.309375     0.271051
Rotational constants in MHz : 29844.829891  9274.824522  8125.906102

                             ****ORCA TERMINATED NORMALLY****
TOTAL RUN TIME: 0 days 0 hours 1 minutes 5 seconds 324 msec
