                         Program Version 4.1.x  -  STABLE  -
|  1> ! RHF DLPNO-CCSD(T) cc-pVDZ RIJK cc-pVTZ/JK cc-pVDZ/C
|  2> ! KDIIS SOSCF TightSCF TightPNO
|  3>
|  4> %pal nprocs 4 end
|  5>
|  6> %maxcore 8000
|  7>
|  8> %scf maxiter 300
|  9>      shift shift 0.2 erroff 0.1 end
| 10> end
| 11>
| 12> * xyzfile 0 1 ethyl_methyl_ether_a.xyz
| 13>
| 14>
| 15>                          ****END OF INPUT****

CARTESIAN COORDINATES (ANGSTROEM)
---------------------------------
  C      1.859350   -0.169100    0.000050
  C      0.497790    0.505270   -0.000050
  O     -0.508990   -0.497580   -0.000090
  C     -1.820430    0.032860    0.000050
  H      2.655090    0.583600    0.000040
  H      1.977320   -0.798980    0.887110
  H      0.383080    1.148770    0.888800
  H     -2.511100   -0.813410    0.000050
  H     -2.006610    0.648340    0.894310
  H     -2.006750    0.648460   -0.894090
  H      1.977380   -0.799070   -0.886950
  H      0.383170    1.148740   -0.888930

 Total Charge           Charge          ....    0
 Multiplicity           Mult            ....    1
 Number of Electrons    NEL             ....   34
 Basis Dimension        Dim             ....   96

ORBITAL ENERGIES
----------------

  NO   OCC          E(Eh)            E(eV)
   0   2.0000     -20.548550      -559.1545
   1   2.0000     -11.277168      -306.8674
   2   2.0000     -11.274648      -306.7988
   3   2.0000     -11.220319      -305.3204
   4   2.0000      -1.365740       -37.1637
   5   2.0000      -1.021135       -27.7865
   6   2.0000      -0.911305       -24.7979
   7   2.0000      -0.826856       -22.4999
   8   2.0000      -0.662077       -18.0160
   9   2.0000      -0.646629       -17.5957
  10   2.0000      -0.619749       -16.8642
  11   2.0000      -0.578209       -15.7339
  12   2.0000      -0.532168       -14.4810
  13   2.0000      -0.503617       -13.7041
  14   2.0000      -0.499500       -13.5921
  15   2.0000      -0.468760       -12.7556
  16   2.0000      -0.415247       -11.2995
  17   0.0000       0.185358         5.0439
  18   0.0000       0.206148         5.6096
  19   0.0000       0.239929         6.5288
  20   0.0000       0.246971         6.7204
  21   0.0000       0.264406         7.1949

MULLIKEN ATOMIC CHARGES
-----------------------
   0 C :   -0.046961
   1 C :    0.155935
   2 O :   -0.492198
   3 C :    0.175834
   4 H :    0.025982
   5 H :    0.042196
   6 H :    0.013534
   7 H :    0.042454
   8 H :    0.013744
   9 H :    0.013743
  10 H :    0.042198
  11 H :    0.013539
Sum of atomic charges:   -0.0000000

LOEWDIN ATOMIC CHARGES
----------------------
   0 C :   -0.053712
   1 C :    0.013453
   2 O :   -0.090624
   3 C :    0.011376
   4 H :    0.024210
   5 H :    0.026137
   6 H :    0.004782
   7 H :    0.021685
   8 H :    0.005885
   9 H :    0.005884
  10 H :    0.026140
  11 H :    0.004783

  Mayer bond orders larger than 0.1
B(  0-C ,  1-C ) :   1.0826 B(  0-C ,  4-H ) :   0.9761 B(  0-C ,  5-H ) :   0.9789
B(  0-C , 10-H ) :   0.9789 B(  1-C ,  2-O ) :   0.9560 B(  1-C ,  6-H ) :   0.9656
B(  1-C , 11-H ) :   0.9656 B(  2-O ,  3-C ) :   0.9783 B(  3-C ,  7-H ) :   0.9945
B(  3-C ,  8-H ) :   0.9811 B(  3-C ,  9-H ) :   0.9811

E(0)                                       ...   -193.118341633
E(0)                                       ...   -193.118341633
E(CORR)(strong-pairs)                      ...     -0.673535180
E(CORR)(weak-pairs)                        ...     -0.000153865
E(CORR)(corrected)                         ...     -0.673689044
E(TOT)                                     ...   -193.792030677
E(CCSD(T))                                 ...   -193.809155637
FINAL SINGLE POINT ENERGY      -193.809155636775

DIPOLE MOMENT
-------------
                                X             Y             Z
Electronic contribution:     -0.99526      -1.33954      -0.00030
Nuclear contribution   :      0.89633       1.86859       0.00038
                        -----------------------------------------
Total Dipole Moment    :     -0.09893       0.52905       0.00008
                        -----------------------------------------
Magnitude (a.u.)       :      0.53822
Magnitude (Debye)      :      1.36806

Rotational constants in cm-1:     0.941007     0.137052     0.128357
Rotational constants in MHz : 28210.692754  4108.713035  3848.038129

                             ****ORCA TERMINATED NORMALLY****
TOTAL RUN TIME: 0 days 0 hours 0 minutes 25 seconds 174 msec
