                         Program Version 4.1.x  -  STABLE  -
|  1> ! RHF DLPNO-CCSD(T) cc-pVDZ RIJK cc-pVTZ/JK cc-pVDZ/C
|  2> ! KDIIS SOSCF TightSCF TightPNO
|  3>
|  4> %pal nprocs 4 end
|  5>
|  6> %maxcore 8000
|  7>
|  8> %scf maxiter 300
|  9>      shift shift 0.2 erroff 0.1 end
| 10> end
| 11>
| 12> * xyzfile 0 1 ethylamine_g.xyz
| 13>
| 14>
| 15>                          ****END OF INPUT****

CARTESIAN COORDINATES (ANGSTROEM)
---------------------------------
  C      1.250030   -0.239660   -0.029520
  C     -0.047290    0.562060    0.056290
  N     -1.210580   -0.319690   -0.114160
  H     -0.074790    1.300390   -0.753750
  H     -0.063050    1.128310    1.003760
  H      2.121880    0.416750    0.065590
  H      1.306200   -0.983690    0.774850
  H     -1.264660   -0.997100    0.642720
  H      1.310300   -0.770420   -0.984660
  H     -2.078260    0.209140   -0.110030

 Total Charge           Charge          ....    0
 Multiplicity           Mult            ....    1
 Number of Electrons    NEL             ....   26
 Basis Dimension        Dim             ....   77

ORBITAL ENERGIES
----------------

  NO   OCC          E(Eh)            E(eV)
   0   2.0000     -15.534648      -422.7193
   1   2.0000     -11.250025      -306.1287
   2   2.0000     -11.216923      -305.2280
   3   2.0000      -1.165996       -31.7284
   4   2.0000      -0.982939       -26.7471
   5   2.0000      -0.818490       -22.2723
   6   2.0000      -0.652216       -17.7477
   7   2.0000      -0.623873       -16.9765
   8   2.0000      -0.575145       -15.6505
   9   2.0000      -0.511572       -13.9206
  10   2.0000      -0.503619       -13.7042
  11   2.0000      -0.484391       -13.1809
  12   2.0000      -0.380965       -10.3666
  13   0.0000       0.183250         4.9865
  14   0.0000       0.222739         6.0610
  15   0.0000       0.228338         6.2134
  16   0.0000       0.251686         6.8487
  17   0.0000       0.268628         7.3097

MULLIKEN ATOMIC CHARGES
-----------------------
   0 C :   -0.051625
   1 C :    0.039851
   2 N :   -0.301334
   3 H :    0.030398
   4 H :    0.009179
   5 H :    0.026329
   6 H :    0.023006
   7 H :    0.090783
   8 H :    0.041013
   9 H :    0.092399
Sum of atomic charges:    0.0000000

LOEWDIN ATOMIC CHARGES
----------------------
   0 C :   -0.056411
   1 C :   -0.021603
   2 N :   -0.070879
   3 H :    0.017040
   4 H :   -0.000603
   5 H :    0.021820
   6 H :    0.017689
   7 H :    0.033233
   8 H :    0.024169
   9 H :    0.035545

  Mayer bond orders larger than 0.1
B(  0-C ,  1-C ) :   1.0625 B(  0-C ,  5-H ) :   0.9822 B(  0-C ,  6-H ) :   0.9818
B(  0-C ,  8-H ) :   0.9795 B(  1-C ,  2-N ) :   1.0334 B(  1-C ,  3-H ) :   0.9717
B(  1-C ,  4-H ) :   0.9705 B(  2-N ,  7-H ) :   0.9874 B(  2-N ,  9-H ) :   0.9875

E(0)                                       ...   -134.261847818
E(0)                                       ...   -134.261847818
E(CORR)(strong-pairs)                      ...     -0.512082978
E(CORR)(weak-pairs)                        ...     -0.000089154
E(CORR)(corrected)                         ...     -0.512172132
E(TOT)                                     ...   -134.774019950
E(CCSD(T))                                 ...   -134.786914047
FINAL SINGLE POINT ENERGY      -134.786914046910

DIPOLE MOMENT
-------------
                                X             Y             Z
Electronic contribution:     -1.45081      -0.09359      -0.25981
Nuclear contribution   :      1.35439       0.32656       0.69079
                        -----------------------------------------
Total Dipole Moment    :     -0.09643       0.23297       0.43098
                        -----------------------------------------
Magnitude (a.u.)       :      0.49932
Magnitude (Debye)      :      1.26918

Rotational constants in cm-1:     1.087653     0.295419     0.259400
Rotational constants in MHz : 32607.015656  8856.425643  7776.617943

                             ****ORCA TERMINATED NORMALLY****
TOTAL RUN TIME: 0 days 0 hours 0 minutes 34 seconds 44 msec
