                         Program Version 4.1.x  -  STABLE  -
|  1> ! RHF DLPNO-CCSD(T) cc-pVDZ RIJK cc-pVTZ/JK cc-pVDZ/C
|  2> ! KDIIS SOSCF TightSCF TightPNO
|  3>
|  4> %pal nprocs 4 end
|  5>
|  6> %maxcore 8000
|  7>
|  8> %scf maxiter 300
|  9>      shift shift 0.2 erroff 0.1 end
| 10> end
| 11>
| 12> * xyzfile 0 1 ethylphosphine_a.xyz
| 13>
| 14>
| 15>                          ****END OF INPUT****

CARTESIAN COORDINATES (ANGSTROEM)
---------------------------------
  C     -0.526870    0.656500    0.000010
  C     -1.678460   -0.353770    0.000000
  P      1.219020   -0.040150    0.000000
  H      1.030990   -0.999600    1.038180
  H      1.031010   -0.999660   -1.038120
  H     -0.592980    1.314860    0.875180
  H     -0.592780    1.314630   -0.875360
  H     -2.650060    0.155540   -0.000120
  H     -1.639640   -1.000020   -0.883630
  H     -1.639790   -0.999880    0.883740

 Total Charge           Charge          ....    0
 Multiplicity           Mult            ....    1
 Number of Electrons    NEL             ....   34
 Basis Dimension        Dim             ....   81

ORBITAL ENERGIES
----------------

  NO   OCC          E(Eh)            E(eV)
   0   2.0000     -79.939954     -2175.2767
   1   2.0000     -11.241367      -305.8931
   2   2.0000     -11.230582      -305.5997
   3   2.0000      -7.481541      -203.5831
   4   2.0000      -5.375476      -146.2741
   5   2.0000      -5.375396      -146.2720
   6   2.0000      -5.373621      -146.2237
   7   2.0000      -1.035616       -28.1806
   8   2.0000      -0.879759       -23.9395
   9   2.0000      -0.780905       -21.2495
  10   2.0000      -0.617937       -16.8149
  11   2.0000      -0.572967       -15.5912
  12   2.0000      -0.530934       -14.4475
  13   2.0000      -0.514785       -14.0080
  14   2.0000      -0.481767       -13.1095
  15   2.0000      -0.454125       -12.3574
  16   2.0000      -0.358134        -9.7453
  17   0.0000       0.156984         4.2718
  18   0.0000       0.184831         5.0295
  19   0.0000       0.210245         5.7211
  20   0.0000       0.215553         5.8655
  21   0.0000       0.240553         6.5458

MULLIKEN ATOMIC CHARGES
-----------------------
   0 C :   -0.256786
   1 C :   -0.037018
   2 P :    0.142568
   3 H :   -0.036432
   4 H :   -0.036426
   5 H :    0.057229
   6 H :    0.057224
   7 H :    0.035330
   8 H :    0.037155
   9 H :    0.037157
Sum of atomic charges:    0.0000000

LOEWDIN ATOMIC CHARGES
----------------------
   0 C :   -0.169551
   1 C :   -0.064638
   2 P :    0.254914
   3 H :   -0.065941
   4 H :   -0.065936
   5 H :    0.022157
   6 H :    0.022155
   7 H :    0.023090
   8 H :    0.021875
   9 H :    0.021875

  Mayer bond orders larger than 0.1
B(  0-C ,  1-C ) :   1.0431 B(  0-C ,  2-P ) :   1.0137 B(  0-C ,  5-H ) :   0.9661
B(  0-C ,  6-H ) :   0.9661 B(  1-C ,  7-H ) :   0.9805 B(  1-C ,  8-H ) :   0.9825
B(  1-C ,  9-H ) :   0.9825 B(  2-P ,  3-H ) :   0.9700 B(  2-P ,  4-H ) :   0.9700

E(0)                                       ...   -420.545069111
E(0)                                       ...   -420.545069111
E(CORR)(strong-pairs)                      ...     -0.474488658
E(CORR)(weak-pairs)                        ...     -0.000077021
E(CORR)(corrected)                         ...     -0.474565679
E(TOT)                                     ...   -421.019634790
E(CCSD(T))                                 ...   -421.032760719
FINAL SINGLE POINT ENERGY      -421.032760718826

DIPOLE MOMENT
-------------
                                X             Y             Z
Electronic contribution:      5.90978       1.14624       0.00008
Nuclear contribution   :     -6.39473      -1.21005      -0.00012
                        -----------------------------------------
Total Dipole Moment    :     -0.48496      -0.06381      -0.00004
                        -----------------------------------------
Magnitude (a.u.)       :      0.48914
Magnitude (Debye)      :      1.24329

Rotational constants in cm-1:     0.862962     0.163300     0.150269
Rotational constants in MHz : 25870.938973  4895.599851  4504.955638

                             ****ORCA TERMINATED NORMALLY****
TOTAL RUN TIME: 0 days 0 hours 0 minutes 15 seconds 400 msec
