                         Program Version 4.1.x  -  STABLE  -
|  1> ! RHF DLPNO-CCSD(T) cc-pVDZ RIJK cc-pVTZ/JK cc-pVDZ/C
|  2> ! KDIIS SOSCF TightSCF TightPNO
|  3>
|  4> %pal nprocs 4 end
|  5>
|  6> %maxcore 8000
|  7>
|  8> %scf maxiter 300
|  9>      shift shift 0.2 erroff 0.1 end
| 10> end
| 11>
| 12> * xyzfile 0 1 ethylamine_a.xyz
| 13>
| 14>
| 15>                          ****END OF INPUT****

CARTESIAN COORDINATES (ANGSTROEM)
---------------------------------
  C      1.245330   -0.264950    0.000020
  C     -0.042650    0.570420   -0.000020
  N     -1.300460   -0.183310   -0.000020
  H     -0.053790    1.229090   -0.876840
  H     -0.053840    1.229100    0.876790
  H      2.134410    0.377830   -0.000000
  H      1.296480   -0.909380    0.886080
  H     -1.366220   -0.783590   -0.818430
  H      1.296470   -0.909430   -0.886010
  H     -1.366410   -0.783280    0.818590

 Total Charge           Charge          ....    0
 Multiplicity           Mult            ....    1
 Number of Electrons    NEL             ....   26
 Basis Dimension        Dim             ....   77

ORBITAL ENERGIES
----------------

  NO   OCC          E(Eh)            E(eV)
   0   2.0000     -15.535610      -422.7454
   1   2.0000     -11.250346      -306.1375
   2   2.0000     -11.220234      -305.3181
   3   2.0000      -1.167387       -31.7662
   4   2.0000      -0.982868       -26.7452
   5   2.0000      -0.826331       -22.4856
   6   2.0000      -0.664356       -18.0780
   7   2.0000      -0.592227       -16.1153
   8   2.0000      -0.565158       -15.3787
   9   2.0000      -0.558812       -15.2060
  10   2.0000      -0.501873       -13.6567
  11   2.0000      -0.478967       -13.0333
  12   2.0000      -0.380524       -10.3546
  13   0.0000       0.180525         4.9123
  14   0.0000       0.225116         6.1257
  15   0.0000       0.227807         6.1989
  16   0.0000       0.239120         6.5068
  17   0.0000       0.270653         7.3649

MULLIKEN ATOMIC CHARGES
-----------------------
   0 C :   -0.066120
   1 C :    0.051368
   2 N :   -0.304573
   3 H :    0.032277
   4 H :    0.032274
   5 H :    0.026546
   6 H :    0.023620
   7 H :    0.090494
   8 H :    0.023620
   9 H :    0.090494
Sum of atomic charges:   -0.0000000

LOEWDIN ATOMIC CHARGES
----------------------
   0 C :   -0.070728
   1 C :   -0.024515
   2 N :   -0.063647
   3 H :    0.018295
   4 H :    0.018295
   5 H :    0.022457
   6 H :    0.016657
   7 H :    0.033265
   8 H :    0.016658
   9 H :    0.033264

  Mayer bond orders larger than 0.1
B(  0-C ,  1-C ) :   1.0530 B(  0-C ,  5-H ) :   0.9772 B(  0-C ,  6-H ) :   0.9809
B(  0-C ,  8-H ) :   0.9809 B(  1-C ,  2-N ) :   1.0374 B(  1-C ,  3-H ) :   0.9750
B(  1-C ,  4-H ) :   0.9750 B(  2-N ,  7-H ) :   0.9901 B(  2-N ,  9-H ) :   0.9901

E(0)                                       ...   -134.261973386
E(0)                                       ...   -134.261973386
E(CORR)(strong-pairs)                      ...     -0.512431730
E(CORR)(weak-pairs)                        ...     -0.000084560
E(CORR)(corrected)                         ...     -0.512516289
E(TOT)                                     ...   -134.774489675
E(CCSD(T))                                 ...   -134.787486450
FINAL SINGLE POINT ENERGY      -134.787486449966

DIPOLE MOMENT
-------------
                                X             Y             Z
Electronic contribution:     -1.67538       0.25306      -0.00006
Nuclear contribution   :      2.03559      -0.59648       0.00018
                        -----------------------------------------
Total Dipole Moment    :      0.36021      -0.34342       0.00012
                        -----------------------------------------
Magnitude (a.u.)       :      0.49769
Magnitude (Debye)      :      1.26502

Rotational constants in cm-1:     1.067735     0.288175     0.258079
Rotational constants in MHz : 32009.897957  8639.262384  7737.015162

                             ****ORCA TERMINATED NORMALLY****
TOTAL RUN TIME: 0 days 0 hours 0 minutes 14 seconds 721 msec
