                         Program Version 4.1.x  -  STABLE  -
|  1> ! RHF DLPNO-CCSD(T) cc-pVDZ RIJK cc-pVTZ/JK cc-pVDZ/C
|  2> ! KDIIS SOSCF TightSCF TightPNO
|  3>
|  4> %pal nprocs 4 end
|  5>
|  6> %maxcore 8000
|  7>
|  8> %scf maxiter 300
|  9>      shift shift 0.2 erroff 0.1 end
| 10> end
| 11>
| 12> * xyzfile 0 1 fluoropropane_a.xyz
| 13>
| 14>
| 15>                          ****END OF INPUT****

CARTESIAN COORDINATES (ANGSTROEM)
---------------------------------
  C     -0.622610    0.492300   -0.000030
  F     -1.872820   -0.158280    0.000040
  C      0.499580   -0.530740   -0.000020
  C      1.880870    0.137640    0.000030
  H     -0.594840    1.127310    0.892990
  H     -0.594940    1.127120   -0.893180
  H      0.389200   -1.173740    0.881140
  H      0.389270   -1.173760   -0.881190
  H      2.675780   -0.614190   -0.000250
  H      2.021870    0.768520   -0.885200
  H      2.022040    0.768090    0.885530

 Total Charge           Charge          ....    0
 Multiplicity           Mult            ....    1
 Number of Electrons    NEL             ....   34
 Basis Dimension        Dim             ....   91

ORBITAL ENERGIES
----------------

  NO   OCC          E(Eh)            E(eV)
   0   2.0000     -26.261786      -714.6195
   1   2.0000     -11.309068      -307.7354
   2   2.0000     -11.237045      -305.7755
   3   2.0000     -11.235504      -305.7336
   4   2.0000      -1.566153       -42.6172
   5   2.0000      -1.068022       -29.0624
   6   2.0000      -0.932866       -25.3846
   7   2.0000      -0.824772       -22.4432
   8   2.0000      -0.693087       -18.8598
   9   2.0000      -0.667351       -18.1595
  10   2.0000      -0.646842       -17.6015
  11   2.0000      -0.609030       -16.5725
  12   2.0000      -0.565175       -15.3792
  13   2.0000      -0.524914       -14.2836
  14   2.0000      -0.514968       -14.0130
  15   2.0000      -0.482920       -13.1409
  16   2.0000      -0.482128       -13.1194
  17   0.0000       0.174553         4.7498
  18   0.0000       0.214881         5.8472
  19   0.0000       0.219431         5.9710
  20   0.0000       0.231030         6.2867
  21   0.0000       0.267736         7.2855

MULLIKEN ATOMIC CHARGES
-----------------------
   0 C :    0.324599
   1 F :   -0.375340
   2 C :   -0.130617
   3 C :   -0.077272
   4 H :    0.030097
   5 H :    0.030094
   6 H :    0.042924
   7 H :    0.042925
   8 H :    0.042320
   9 H :    0.035129
  10 H :    0.035140
Sum of atomic charges:   -0.0000000

LOEWDIN ATOMIC CHARGES
----------------------
   0 C :    0.079506
   1 F :   -0.130975
   2 C :   -0.050555
   3 C :   -0.052691
   4 H :    0.014962
   5 H :    0.014961
   6 H :    0.026341
   7 H :    0.026343
   8 H :    0.028181
   9 H :    0.021963
  10 H :    0.021964

  Mayer bond orders larger than 0.1
B(  0-C ,  1-F ) :   0.8856 B(  0-C ,  2-C ) :   1.0564 B(  0-C ,  4-H ) :   0.9720
B(  0-C ,  5-H ) :   0.9720 B(  2-C ,  3-C ) :   1.0483 B(  2-C ,  6-H ) :   0.9666
B(  2-C ,  7-H ) :   0.9666 B(  3-C ,  8-H ) :   0.9832 B(  3-C ,  9-H ) :   0.9808
B(  3-C , 10-H ) :   0.9808

E(0)                                       ...   -217.126505225
E(0)                                       ...   -217.126505225
E(CORR)(strong-pairs)                      ...     -0.667097486
E(CORR)(weak-pairs)                        ...     -0.000148324
E(CORR)(corrected)                         ...     -0.667245810
E(TOT)                                     ...   -217.793751035
E(CCSD(T))                                 ...   -217.809322318
FINAL SINGLE POINT ENERGY      -217.809322318246

DIPOLE MOMENT
-------------
                                X             Y             Z
Electronic contribution:     -7.55306      -0.70901       0.00018
Nuclear contribution   :      8.39019       1.01372      -0.00022
                        -----------------------------------------
Total Dipole Moment    :      0.83713       0.30471      -0.00004
                        -----------------------------------------
Magnitude (a.u.)       :      0.89086
Magnitude (Debye)      :      2.26438

Rotational constants in cm-1:     0.904499     0.123085     0.115392
Rotational constants in MHz : 27116.197405  3689.985666  3459.367447

                             ****ORCA TERMINATED NORMALLY****
TOTAL RUN TIME: 0 days 0 hours 1 minutes 21 seconds 532 msec
