                         Program Version 4.1.x  -  STABLE  -
|  1> ! RHF DLPNO-CCSD(T) cc-pVDZ RIJK cc-pVTZ/JK cc-pVDZ/C
|  2> ! KDIIS SOSCF TightSCF TightPNO
|  3>
|  4> %pal nprocs 4 end
|  5>
|  6> %maxcore 8000
|  7>
|  8> %scf maxiter 300
|  9>      shift shift 0.2 erroff 0.1 end
| 10> end
| 11>
| 12> * xyzfile 0 1 fluorocyclohexane_ax.xyz
| 13>
| 14>
| 15>                          ****END OF INPUT****

CARTESIAN COORDINATES (ANGSTROEM)
---------------------------------
  C      0.343420    1.273500    0.580480
  C      1.167930    0.000010    0.412510
  C      0.343430   -1.273500    0.580500
  C     -0.923840   -1.268440   -0.289540
  C     -1.761220   -0.000010   -0.057500
  C     -0.923860    1.268430   -0.289530
  F      1.722170    0.000000   -0.900630
  H      0.974170   -2.139740    0.351090
  H      0.067140   -1.351440    1.641770
  H     -1.518700   -2.164930   -0.078100
  H     -2.144630    0.000000    0.974060
  H     -2.638180   -0.000020   -0.716000
  H      2.030310    0.000010    1.089100
  H     -1.518730    2.164920   -0.078090
  H     -0.633680    1.324110   -1.346230
  H      0.067100    1.351450    1.641750
  H      0.974160    2.139760    0.351080
  H     -0.633660   -1.324100   -1.346240

 Total Charge           Charge          ....    0
 Multiplicity           Mult            ....    1
 Number of Electrons    NEL             ....   56
 Basis Dimension        Dim             ....  153

ORBITAL ENERGIES
----------------

  NO   OCC          E(Eh)            E(eV)
   0   2.0000     -26.257067      -714.4911
   1   2.0000     -11.307237      -307.6856
   2   2.0000     -11.231408      -305.6222
   3   2.0000     -11.231391      -305.6217
   4   2.0000     -11.226804      -305.4969
   5   2.0000     -11.226241      -305.4816
   6   2.0000     -11.225936      -305.4732
   7   2.0000      -1.559995       -42.4496
   8   2.0000      -1.117072       -30.3971
   9   2.0000      -1.012307       -27.5463
  10   2.0000      -1.006704       -27.3938
  11   2.0000      -0.844735       -22.9864
  12   2.0000      -0.838227       -22.8093
  13   2.0000      -0.755190       -20.5498
  14   2.0000      -0.692457       -18.8427
  15   2.0000      -0.655858       -17.8468
  16   2.0000      -0.646381       -17.5889
  17   2.0000      -0.624715       -16.9993
  18   2.0000      -0.591030       -16.0828
  19   2.0000      -0.579584       -15.7713
  20   2.0000      -0.540757       -14.7147
  21   2.0000      -0.532084       -14.4787
  22   2.0000      -0.516835       -14.0638
  23   2.0000      -0.515619       -14.0307
  24   2.0000      -0.484048       -13.1716
  25   2.0000      -0.461599       -12.5607
  26   2.0000      -0.436627       -11.8812
  27   2.0000      -0.435734       -11.8569
  28   0.0000       0.171739         4.6733
  29   0.0000       0.202032         5.4976
  30   0.0000       0.217603         5.9213
  31   0.0000       0.218657         5.9500
  32   0.0000       0.250928         6.8281

MULLIKEN ATOMIC CHARGES
-----------------------
   0 C :   -0.039557
   1 C :    0.261090
   2 C :   -0.039550
   3 C :   -0.045301
   4 C :   -0.051287
   5 C :   -0.045301
   6 F :   -0.388194
   7 H :    0.040972
   8 H :    0.027073
   9 H :    0.026112
  10 H :    0.020890
  11 H :    0.028429
  12 H :    0.023953
  13 H :    0.026113
  14 H :    0.043253
  15 H :    0.027073
  16 H :    0.040975
  17 H :    0.043256
Sum of atomic charges:    0.0000000

LOEWDIN ATOMIC CHARGES
----------------------
   0 C :   -0.037212
   1 C :    0.069880
   2 C :   -0.037207
   3 C :   -0.031406
   4 C :   -0.033565
   5 C :   -0.031409
   6 F :   -0.142830
   7 H :    0.027329
   8 H :    0.023200
   9 H :    0.020975
  10 H :    0.014668
  11 H :    0.021413
  12 H :    0.017657
  13 H :    0.020976
  14 H :    0.023499
  15 H :    0.023201
  16 H :    0.027332
  17 H :    0.023500

  Mayer bond orders larger than 0.1
B(  0-C ,  1-C ) :   1.0371 B(  0-C ,  5-C ) :   1.0381 B(  0-C , 15-H ) :   0.9581
B(  0-C , 16-H ) :   0.9670 B(  1-C ,  2-C ) :   1.0371 B(  1-C ,  6-F ) :   0.8479
B(  1-C , 12-H ) :   0.9741 B(  2-C ,  3-C ) :   1.0381 B(  2-C ,  7-H ) :   0.9670
B(  2-C ,  8-H ) :   0.9581 B(  3-C ,  4-C ) :   1.0435 B(  3-C ,  9-H ) :   0.9729
B(  3-C , 17-H ) :   0.9638 B(  4-C ,  5-C ) :   1.0435 B(  4-C , 10-H ) :   0.9649
B(  4-C , 11-H ) :   0.9731 B(  5-C , 13-H ) :   0.9729 B(  5-C , 14-H ) :   0.9638

E(0)                                       ...   -333.084763226
E(0)                                       ...   -333.084763226
E(CORR)(strong-pairs)                      ...     -1.106304074
E(CORR)(weak-pairs)                        ...     -0.000451382
E(CORR)(corrected)                         ...     -1.106755455
E(TOT)                                     ...   -334.191518681
E(CCSD(T))                                 ...   -334.222676741
FINAL SINGLE POINT ENERGY      -334.222676741032

DIPOLE MOMENT
-------------
                                X             Y             Z
Electronic contribution:      6.44150      -0.00003      -2.78407
Nuclear contribution   :     -6.87285       0.00003       3.47338
                        -----------------------------------------
Total Dipole Moment    :     -0.43136      -0.00000       0.68930
                        -----------------------------------------
Magnitude (a.u.)       :      0.81315
Magnitude (Debye)      :      2.06686

Rotational constants in cm-1:     0.118141     0.086189     0.064861
Rotational constants in MHz :  3541.764059  2583.885570  1944.469749

                             ****ORCA TERMINATED NORMALLY****
TOTAL RUN TIME: 0 days 0 hours 2 minutes 35 seconds 165 msec
