                         Program Version 4.1.x  -  STABLE  -
|  1> ! RHF DLPNO-CCSD(T) cc-pVDZ RIJK cc-pVTZ/JK cc-pVDZ/C
|  2> ! KDIIS SOSCF TightSCF TightPNO
|  3>
|  4> %pal nprocs 4 end
|  5>
|  6> %maxcore 8000
|  7>
|  8> %scf maxiter 300
|  9>      shift shift 0.2 erroff 0.1 end
| 10> end
| 11>
| 12> * xyzfile 0 1 fluorocyclohexane_eq.xyz
| 13>
| 14>
| 15>                          ****END OF INPUT****

CARTESIAN COORDINATES (ANGSTROEM)
---------------------------------
  C      0.346320   -1.266110   -0.175090
  C      1.027130   -0.000000    0.328460
  C      0.346340    1.266110   -0.175080
  C     -1.145040    1.270050    0.209900
  C     -1.858270    0.000000   -0.282340
  C     -1.145060   -1.270040    0.209900
  F      2.378120   -0.000020   -0.102560
  H      0.858750    2.146360    0.228840
  H      0.451350    1.301700   -1.267640
  H     -1.628820    2.164900   -0.198340
  H     -1.880060    0.000000   -1.381480
  H     -2.902880    0.000020    0.051620
  H      1.068850   -0.000020    1.426140
  H     -1.628860   -2.164900   -0.198300
  H     -1.239960   -1.338090    1.303280
  H      0.451310   -1.301670   -1.267650
  H      0.858700   -2.146370    0.228840
  H     -1.239970    1.338120    1.303270

 Total Charge           Charge          ....    0
 Multiplicity           Mult            ....    1
 Number of Electrons    NEL             ....   56
 Basis Dimension        Dim             ....  153

ORBITAL ENERGIES
----------------

  NO   OCC          E(Eh)            E(eV)
   0   2.0000     -26.257357      -714.4990
   1   2.0000     -11.305948      -307.6505
   2   2.0000     -11.234708      -305.7120
   3   2.0000     -11.234664      -305.7107
   4   2.0000     -11.231838      -305.6339
   5   2.0000     -11.230558      -305.5990
   6   2.0000     -11.230541      -305.5985
   7   2.0000      -1.561178       -42.4818
   8   2.0000      -1.123823       -30.5808
   9   2.0000      -1.015019       -27.6201
  10   2.0000      -1.006557       -27.3898
  11   2.0000      -0.848422       -23.0867
  12   2.0000      -0.836489       -22.7620
  13   2.0000      -0.771597       -20.9962
  14   2.0000      -0.674963       -18.3667
  15   2.0000      -0.670246       -18.2383
  16   2.0000      -0.643843       -17.5199
  17   2.0000      -0.626416       -17.0456
  18   2.0000      -0.600692       -16.3457
  19   2.0000      -0.587071       -15.9750
  20   2.0000      -0.556232       -15.1358
  21   2.0000      -0.537787       -14.6339
  22   2.0000      -0.503817       -13.7096
  23   2.0000      -0.494130       -13.4460
  24   2.0000      -0.490123       -13.3369
  25   2.0000      -0.468809       -12.7569
  26   2.0000      -0.451448       -12.2845
  27   2.0000      -0.437985       -11.9182
  28   0.0000       0.171890         4.6774
  29   0.0000       0.187760         5.1092
  30   0.0000       0.209642         5.7046
  31   0.0000       0.220477         5.9995
  32   0.0000       0.249479         6.7887

MULLIKEN ATOMIC CHARGES
-----------------------
   0 C :   -0.036306
   1 C :    0.279649
   2 C :   -0.036308
   3 C :   -0.065921
   4 C :   -0.041269
   5 C :   -0.065924
   6 F :   -0.382425
   7 H :    0.037915
   8 H :    0.036531
   9 H :    0.032886
  10 H :    0.028725
  11 H :    0.028590
  12 H :    0.020643
  13 H :    0.032886
  14 H :    0.027940
  15 H :    0.036531
  16 H :    0.037916
  17 H :    0.027943
Sum of atomic charges:   -0.0000000

LOEWDIN ATOMIC CHARGES
----------------------
   0 C :   -0.034320
   1 C :    0.062892
   2 C :   -0.034323
   3 C :   -0.032189
   4 C :   -0.033296
   5 C :   -0.032192
   6 F :   -0.131808
   7 H :    0.025813
   8 H :    0.023349
   9 H :    0.023818
  10 H :    0.018301
  11 H :    0.021867
  12 H :    0.013752
  13 H :    0.023818
  14 H :    0.017679
  15 H :    0.023348
  16 H :    0.025812
  17 H :    0.017679

  Mayer bond orders larger than 0.1
B(  0-C ,  1-C ) :   1.0377 B(  0-C ,  5-C ) :   1.0337 B(  0-C , 15-H ) :   0.9595
B(  0-C , 16-H ) :   0.9688 B(  1-C ,  2-C ) :   1.0377 B(  1-C ,  6-F ) :   0.8580
B(  1-C , 12-H ) :   0.9611 B(  2-C ,  3-C ) :   1.0337 B(  2-C ,  7-H ) :   0.9688
B(  2-C ,  8-H ) :   0.9595 B(  3-C ,  4-C ) :   1.0402 B(  3-C ,  9-H ) :   0.9717
B(  3-C , 17-H ) :   0.9643 B(  4-C ,  5-C ) :   1.0402 B(  4-C , 10-H ) :   0.9653
B(  4-C , 11-H ) :   0.9723 B(  5-C , 13-H ) :   0.9717 B(  5-C , 14-H ) :   0.9643

E(0)                                       ...   -333.084378167
E(0)                                       ...   -333.084378167
E(CORR)(strong-pairs)                      ...     -1.106266388
E(CORR)(weak-pairs)                        ...     -0.000495244
E(CORR)(corrected)                         ...     -1.106761632
E(TOT)                                     ...   -334.191139799
E(CCSD(T))                                 ...   -334.222333998
FINAL SINGLE POINT ENERGY      -334.222333998244

DIPOLE MOMENT
-------------
                                X             Y             Z
Electronic contribution:      8.52585      -0.00007      -0.14880
Nuclear contribution   :     -9.45161       0.00008       0.33961
                        -----------------------------------------
Total Dipole Moment    :     -0.92575       0.00002       0.19081
                        -----------------------------------------
Magnitude (a.u.)       :      0.94521
Magnitude (Debye)      :      2.40255

Rotational constants in cm-1:     0.142757     0.072109     0.052397
Rotational constants in MHz :  4279.753102  2161.785236  1570.829704

                             ****ORCA TERMINATED NORMALLY****
TOTAL RUN TIME: 0 days 0 hours 3 minutes 13 seconds 260 msec
