                         Program Version 4.1.x  -  STABLE  -
|  1> ! RHF DLPNO-CCSD(T) cc-pVDZ RIJK cc-pVTZ/JK cc-pVDZ/C
|  2> ! KDIIS SOSCF TightSCF TightPNO
|  3>
|  4> %pal nprocs 4 end
|  5>
|  6> %maxcore 8000
|  7>
|  8> %scf maxiter 300
|  9>      shift shift 0.2 erroff 0.1 end
| 10> end
| 11>
| 12> * xyzfile 0 1 fluoropropane_g.xyz
| 13>
| 14>
| 15>                          ****END OF INPUT****

CARTESIAN COORDINATES (ANGSTROEM)
---------------------------------
  C      0.794360    0.517840    0.303310
  F      1.421040   -0.654700   -0.171130
  C     -0.597390    0.647870   -0.289070
  C     -1.548300   -0.482470    0.119080
  H      1.437980    1.356340    0.016880
  H      0.766440    0.437570    1.396410
  H     -0.999050    1.617830    0.036050
  H     -0.509350    0.695660   -1.381560
  H     -2.537000   -0.343000   -0.329710
  H     -1.163820   -1.453900   -0.205300
  H     -1.676610   -0.517660    1.207490

 Total Charge           Charge          ....    0
 Multiplicity           Mult            ....    1
 Number of Electrons    NEL             ....   34
 Basis Dimension        Dim             ....   91

ORBITAL ENERGIES
----------------

  NO   OCC          E(Eh)            E(eV)
   0   2.0000     -26.262171      -714.6300
   1   2.0000     -11.309511      -307.7474
   2   2.0000     -11.237847      -305.7974
   3   2.0000     -11.226416      -305.4863
   4   2.0000      -1.566134       -42.6167
   5   2.0000      -1.064145       -28.9569
   6   2.0000      -0.935146       -25.4466
   7   2.0000      -0.817386       -22.2422
   8   2.0000      -0.687201       -18.6997
   9   2.0000      -0.681251       -18.5378
  10   2.0000      -0.640352       -17.4249
  11   2.0000      -0.595829       -16.2133
  12   2.0000      -0.567117       -15.4320
  13   2.0000      -0.538235       -14.6461
  14   2.0000      -0.495679       -13.4881
  15   2.0000      -0.483549       -13.1580
  16   2.0000      -0.481331       -13.0977
  17   0.0000       0.180723         4.9177
  18   0.0000       0.218911         5.9569
  19   0.0000       0.221782         6.0350
  20   0.0000       0.247263         6.7284
  21   0.0000       0.258240         7.0271

MULLIKEN ATOMIC CHARGES
-----------------------
   0 C :    0.316136
   1 F :   -0.376830
   2 C :   -0.136379
   3 C :   -0.057641
   4 H :    0.034481
   5 H :    0.029793
   6 H :    0.028967
   7 H :    0.043917
   8 H :    0.035059
   9 H :    0.052608
  10 H :    0.029889
Sum of atomic charges:   -0.0000000

LOEWDIN ATOMIC CHARGES
----------------------
   0 C :    0.082102
   1 F :   -0.134976
   2 C :   -0.054211
   3 C :   -0.051820
   4 H :    0.017581
   5 H :    0.015003
   6 H :    0.026583
   7 H :    0.027005
   8 H :    0.024313
   9 H :    0.027916
  10 H :    0.020506

  Mayer bond orders larger than 0.1
B(  0-C ,  1-F ) :   0.8829 B(  0-C ,  2-C ) :   1.0572 B(  0-C ,  4-H ) :   0.9770
B(  0-C ,  5-H ) :   0.9710 B(  2-C ,  3-C ) :   1.0527 B(  2-C ,  6-H ) :   0.9626
B(  2-C ,  7-H ) :   0.9655 B(  3-C ,  8-H ) :   0.9845 B(  3-C ,  9-H ) :   0.9803
B(  3-C , 10-H ) :   0.9817

E(0)                                       ...   -217.127000982
E(0)                                       ...   -217.127000982
E(CORR)(strong-pairs)                      ...     -0.667286095
E(CORR)(weak-pairs)                        ...     -0.000150039
E(CORR)(corrected)                         ...     -0.667436134
E(TOT)                                     ...   -217.794437116
E(CCSD(T))                                 ...   -217.810015221
FINAL SINGLE POINT ENERGY      -217.810015221325

DIPOLE MOMENT
-------------
                                X             Y             Z
Electronic contribution:      5.80022      -1.83679      -0.70738
Nuclear contribution   :     -6.25803       2.50886       0.93515
                        -----------------------------------------
Total Dipole Moment    :     -0.45781       0.67207       0.22777
                        -----------------------------------------
Magnitude (a.u.)       :      0.84448
Magnitude (Debye)      :      2.14650

Rotational constants in cm-1:     0.483966     0.165797     0.140611
Rotational constants in MHz : 14508.930837  4970.454611  4215.414416

                             ****ORCA TERMINATED NORMALLY****
TOTAL RUN TIME: 0 days 0 hours 1 minutes 20 seconds 738 msec
