                         Program Version 4.1.x  -  STABLE  -
|  1> ! RHF DLPNO-CCSD(T) cc-pVDZ RIJK cc-pVTZ/JK cc-pVDZ/C
|  2> ! KDIIS SOSCF TightSCF TightPNO
|  3>
|  4> %pal nprocs 4 end
|  5>
|  6> %maxcore 8000
|  7>
|  8> %scf maxiter 300
|  9>      shift shift 0.2 erroff 0.1 end
| 10> end
| 11>
| 12> * xyzfile 0 1 formic_acid_Z.xyz
| 13>
| 14>
| 15>                          ****END OF INPUT****

CARTESIAN COORDINATES (ANGSTROEM)
---------------------------------
  C      0.000000    0.423580    0.000000
  O     -1.034520   -0.439550    0.000000
  O      1.165020    0.107680    0.000000
  H     -0.375010    1.455820    0.000000
  H     -0.668980   -1.342350    0.000000

 Total Charge           Charge          ....    0
 Multiplicity           Mult            ....    1
 Number of Electrons    NEL             ....   24
 Basis Dimension        Dim             ....   52

ORBITAL ENERGIES
----------------

  NO   OCC          E(Eh)            E(eV)
   0   2.0000     -20.623568      -561.1958
   1   2.0000     -20.563641      -559.5651
   2   2.0000     -11.400065      -310.2115
   3   2.0000      -1.469031       -39.9744
   4   2.0000      -1.369704       -37.2716
   5   2.0000      -0.889837       -24.2137
   6   2.0000      -0.716770       -19.5043
   7   2.0000      -0.704939       -19.1824
   8   2.0000      -0.628164       -17.0932
   9   2.0000      -0.595237       -16.1972
  10   2.0000      -0.485890       -13.2217
  11   2.0000      -0.464729       -12.6459
  12   0.0000       0.173308         4.7160
  13   0.0000       0.184299         5.0150
  14   0.0000       0.215275         5.8579
  15   0.0000       0.401738        10.9319
  16   0.0000       0.443673        12.0730

MULLIKEN ATOMIC CHARGES
-----------------------
   0 C :    0.419874
   1 O :   -0.304532
   2 O :   -0.369011
   3 H :    0.059872
   4 H :    0.193797
Sum of atomic charges:   -0.0000000

LOEWDIN ATOMIC CHARGES
----------------------
   0 C :    0.011524
   1 O :    0.016256
   2 O :   -0.118363
   3 H :    0.011661
   4 H :    0.078922

  Mayer bond orders larger than 0.1
B(  0-C ,  1-O ) :   1.1747 B(  0-C ,  2-O ) :   2.0769 B(  0-C ,  3-H ) :   0.9560
B(  1-O ,  4-H ) :   0.9697

E(0)                                       ...   -188.780640942
E(0)                                       ...   -188.780640942
E(CORR)(strong-pairs)                      ...     -0.512879406
E(CORR)(weak-pairs)                        ...     -0.000052201
E(CORR)(corrected)                         ...     -0.512931607
E(TOT)                                     ...   -189.293572548
E(CCSD(T))                                 ...   -189.307710108
FINAL SINGLE POINT ENERGY      -189.307710107508

DIPOLE MOMENT
-------------
                                X             Y             Z
Electronic contribution:      0.37536      -0.16606      -0.00000
Nuclear contribution   :     -1.02040       0.10600       0.00000
                        -----------------------------------------
Total Dipole Moment    :     -0.64504      -0.06006      -0.00000
                        -----------------------------------------
Magnitude (a.u.)       :      0.64783
Magnitude (Debye)      :      1.64665

Rotational constants in cm-1:     2.571499     0.399133     0.345506
Rotational constants in MHz : 77091.612757 11965.706357 10357.998758

                             ****ORCA TERMINATED NORMALLY****
TOTAL RUN TIME: 0 days 0 hours 0 minutes 8 seconds 912 msec
