                         Program Version 4.1.x  -  STABLE  -
|  1> ! RHF DLPNO-CCSD(T) cc-pVDZ RIJK cc-pVTZ/JK cc-pVDZ/C
|  2> ! KDIIS SOSCF TightSCF TightPNO
|  3>
|  4> %pal nprocs 4 end
|  5>
|  6> %maxcore 8000
|  7>
|  8> %scf maxiter 300
|  9>      shift shift 0.2 erroff 0.1 end
| 10> end
| 11>
| 12> * xyzfile 0 1 formamidine_cis.xyz
| 13>
| 14>
| 15>                          ****END OF INPUT****

CARTESIAN COORDINATES (ANGSTROEM)
---------------------------------
  C     -0.122180    0.420600    0.000020
  N      1.116260   -0.177020   -0.000070
  N     -1.281000   -0.121070    0.000010
  H     -0.063370    1.511620   -0.000010
  H     -1.221960   -1.144240   -0.000010
  H      1.957440    0.376720    0.000220
  H      1.214170   -1.181020    0.000180

 Total Charge           Charge          ....    0
 Multiplicity           Mult            ....    1
 Number of Electrons    NEL             ....   24
 Basis Dimension        Dim             ....   62

ORBITAL ENERGIES
----------------

  NO   OCC          E(Eh)            E(eV)
   0   2.0000     -15.580971      -423.9798
   1   2.0000     -15.519396      -422.3042
   2   2.0000     -11.314681      -307.8881
   3   2.0000      -1.246740       -33.9255
   4   2.0000      -1.131441       -30.7881
   5   2.0000      -0.829698       -22.5772
   6   2.0000      -0.714955       -19.4549
   7   2.0000      -0.678974       -18.4758
   8   2.0000      -0.567741       -15.4490
   9   2.0000      -0.520039       -14.1510
  10   2.0000      -0.414934       -11.2909
  11   2.0000      -0.356955        -9.7132
  12   0.0000       0.176623         4.8061
  13   0.0000       0.198318         5.3965
  14   0.0000       0.215422         5.8619
  15   0.0000       0.250039         6.8039
  16   0.0000       0.272694         7.4204

MULLIKEN ATOMIC CHARGES
-----------------------
   0 C :    0.229339
   1 N :   -0.265120
   2 N :   -0.343790
   3 H :    0.054612
   4 H :    0.080224
   5 H :    0.125750
   6 H :    0.118984
Sum of atomic charges:   -0.0000000

LOEWDIN ATOMIC CHARGES
----------------------
   0 C :   -0.015326
   1 N :    0.016150
   2 N :   -0.157227
   3 H :    0.023017
   4 H :    0.023179
   5 H :    0.057805
   6 H :    0.052402

  Mayer bond orders larger than 0.1
B(  0-C ,  1-N ) :   1.1724 B(  0-C ,  2-N ) :   2.0029 B(  0-C ,  3-H ) :   0.9577
B(  1-N ,  5-H ) :   0.9775 B(  1-N ,  6-H ) :   0.9777 B(  2-N ,  4-H ) :   0.9702

E(0)                                       ...   -149.090606389
E(0)                                       ...   -149.090606389
E(CORR)(strong-pairs)                      ...     -0.495443879
E(CORR)(weak-pairs)                        ...     -0.000061066
E(CORR)(corrected)                         ...     -0.495504944
E(TOT)                                     ...   -149.586111333
E(CCSD(T))                                 ...   -149.601199543
FINAL SINGLE POINT ENERGY      -149.601199542918

DIPOLE MOMENT
-------------
                                X             Y             Z
Electronic contribution:     -0.47210       0.19119      -0.00003
Nuclear contribution   :      1.92882      -0.44880       0.00037
                        -----------------------------------------
Total Dipole Moment    :      1.45672      -0.25761       0.00034
                        -----------------------------------------
Magnitude (a.u.)       :      1.47932
Magnitude (Debye)      :      3.76013

Rotational constants in cm-1:     2.126302     0.355618     0.304664
Rotational constants in MHz : 63744.933858 10661.155157  9133.588970

                             ****ORCA TERMINATED NORMALLY****
TOTAL RUN TIME: 0 days 0 hours 0 minutes 12 seconds 474 msec
