                         Program Version 4.1.x  -  STABLE  -
|  1> ! RHF DLPNO-CCSD(T) cc-pVDZ RIJK cc-pVTZ/JK cc-pVDZ/C
|  2> ! KDIIS SOSCF TightSCF TightPNO
|  3>
|  4> %pal nprocs 4 end
|  5>
|  6> %maxcore 8000
|  7>
|  8> %scf maxiter 300
|  9>      shift shift 0.2 erroff 0.1 end
| 10> end
| 11>
| 12> * xyzfile 0 1 Formaldehyde_dimethylacetal_g_ecl_dimethoxymethane.xyz
| 13>
| 14>
| 15>                          ****END OF INPUT****

CARTESIAN COORDINATES (ANGSTROEM)
---------------------------------
  C      1.621610    0.853630    0.011940
  O      1.317170   -0.528610   -0.127670
  C      0.030490   -0.885600    0.291790
  O     -0.982860   -0.319260   -0.517700
  C     -1.873600    0.577040    0.134100
  H      2.670650    0.973250   -0.264950
  H      1.001440    1.468210   -0.651130
  H      1.483850    1.185410    1.052850
  H     -0.011960   -1.973450    0.190080
  H     -0.128190   -0.591170    1.344520
  H     -2.548860    0.958900   -0.634590
  H     -2.469150    0.068710    0.905230
  H     -1.343160    1.422710    0.593910

 Total Charge           Charge          ....    0
 Multiplicity           Mult            ....    1
 Number of Electrons    NEL             ....   42
 Basis Dimension        Dim             ....  110

ORBITAL ENERGIES
----------------

  NO   OCC          E(Eh)            E(eV)
   0   2.0000     -20.557147      -559.3884
   1   2.0000     -20.556472      -559.3700
   2   2.0000     -11.330718      -308.3245
   3   2.0000     -11.284909      -307.0780
   4   2.0000     -11.277601      -306.8791
   5   2.0000      -1.406802       -38.2810
   6   2.0000      -1.341558       -36.5056
   7   2.0000      -0.983222       -26.7548
   8   2.0000      -0.922790       -25.1104
   9   2.0000      -0.846287       -23.0286
  10   2.0000      -0.686140       -18.6708
  11   2.0000      -0.681481       -18.5441
  12   2.0000      -0.670445       -18.2437
  13   2.0000      -0.605057       -16.4644
  14   2.0000      -0.595984       -16.2176
  15   2.0000      -0.585191       -15.9238
  16   2.0000      -0.539306       -14.6753
  17   2.0000      -0.490827       -13.3561
  18   2.0000      -0.475625       -12.9424
  19   2.0000      -0.440341       -11.9823
  20   2.0000      -0.424424       -11.5492
  21   0.0000       0.178359         4.8534
  22   0.0000       0.215671         5.8687
  23   0.0000       0.229017         6.2319
  24   0.0000       0.244447         6.6518
  25   0.0000       0.254629         6.9288

MULLIKEN ATOMIC CHARGES
-----------------------
   0 C :    0.161692
   1 O :   -0.481928
   2 C :    0.438692
   3 O :   -0.505349
   4 C :    0.166028
   5 H :    0.045914
   6 H :    0.037001
   7 H :    0.011155
   8 H :    0.041154
   9 H :   -0.003355
  10 H :    0.048568
  11 H :    0.025098
  12 H :    0.015331
Sum of atomic charges:    0.0000000

LOEWDIN ATOMIC CHARGES
----------------------
   0 C :    0.016117
   1 O :   -0.071773
   2 C :    0.044638
   3 O :   -0.092453
   4 C :    0.014412
   5 H :    0.023824
   6 H :    0.011943
   7 H :    0.004693
   8 H :    0.016946
   9 H :   -0.007846
  10 H :    0.025252
  11 H :    0.008726
  12 H :    0.005522

  Mayer bond orders larger than 0.1
B(  0-C ,  1-O ) :   0.9598 B(  0-C ,  5-H ) :   0.9955 B(  0-C ,  6-H ) :   0.9823
B(  0-C ,  7-H ) :   0.9791 B(  1-O ,  2-C ) :   1.0236 B(  2-C ,  3-O ) :   0.9664
B(  2-C ,  8-H ) :   0.9818 B(  2-C ,  9-H ) :   0.9713 B(  3-O ,  4-C ) :   0.9646
B(  4-C , 10-H ) :   0.9936 B(  4-C , 11-H ) :   0.9850 B(  4-C , 12-H ) :   0.9803

E(0)                                       ...   -267.965544642
E(0)                                       ...   -267.965544642
E(CORR)(strong-pairs)                      ...     -0.853049724
E(CORR)(weak-pairs)                        ...     -0.000239447
E(CORR)(corrected)                         ...     -0.853289171
E(TOT)                                     ...   -268.818833813
E(CCSD(T))                                 ...   -268.840557540
FINAL SINGLE POINT ENERGY      -268.840557539631

DIPOLE MOMENT
-------------
                                X             Y             Z
Electronic contribution:      1.04731      -3.02742      -1.88354
Nuclear contribution   :     -1.38916       3.62722       2.61817
                        -----------------------------------------
Total Dipole Moment    :     -0.34185       0.59981       0.73463
                        -----------------------------------------
Magnitude (a.u.)       :      1.00812
Magnitude (Debye)      :      2.56245

Rotational constants in cm-1:     0.332869     0.110423     0.092707
Rotational constants in MHz :  9979.171834  3310.410502  2779.277188

                             ****ORCA TERMINATED NORMALLY****
TOTAL RUN TIME: 0 days 0 hours 0 minutes 42 seconds 784 msec
