                         Program Version 4.1.x  -  STABLE  -
|  1> ! RHF DLPNO-CCSD(T) cc-pVDZ RIJK cc-pVTZ/JK cc-pVDZ/C
|  2> ! KDIIS SOSCF TightSCF TightPNO
|  3>
|  4> %pal nprocs 4 end
|  5>
|  6> %maxcore 8000
|  7>
|  8> %scf maxiter 300
|  9>      shift shift 0.2 erroff 0.1 end
| 10> end
| 11>
| 12> * xyzfile 0 1 formamidine_t.xyz
| 13>
| 14>
| 15>                          ****END OF INPUT****

CARTESIAN COORDINATES (ANGSTROEM)
---------------------------------
  C      0.000000    0.411170    0.000000
  N     -1.036080   -0.478590    0.000000
  N      1.223920    0.032920    0.000000
  H     -0.335660    1.456290    0.000000
  H      1.848040    0.837160    0.000000
  H     -1.993710   -0.173420    0.000000
  H     -0.833530   -1.467340    0.000000

 Total Charge           Charge          ....    0
 Multiplicity           Mult            ....    1
 Number of Electrons    NEL             ....   24
 Basis Dimension        Dim             ....   62

ORBITAL ENERGIES
----------------

  NO   OCC          E(Eh)            E(eV)
   0   2.0000     -15.570414      -423.6925
   1   2.0000     -15.515134      -422.1883
   2   2.0000     -11.313761      -307.8631
   3   2.0000      -1.243957       -33.8498
   4   2.0000      -1.127629       -30.6844
   5   2.0000      -0.818516       -22.2729
   6   2.0000      -0.731409       -19.9027
   7   2.0000      -0.624294       -16.9879
   8   2.0000      -0.609497       -16.5852
   9   2.0000      -0.516315       -14.0496
  10   2.0000      -0.409103       -11.1322
  11   2.0000      -0.349550        -9.5117
  12   0.0000       0.180445         4.9102
  13   0.0000       0.207642         5.6502
  14   0.0000       0.213377         5.8063
  15   0.0000       0.245449         6.6790
  16   0.0000       0.278321         7.5735

MULLIKEN ATOMIC CHARGES
-----------------------
   0 C :    0.212718
   1 N :   -0.244544
   2 N :   -0.344148
   3 H :    0.027254
   4 H :    0.096235
   5 H :    0.121348
   6 H :    0.131138
Sum of atomic charges:    0.0000000

LOEWDIN ATOMIC CHARGES
----------------------
   0 C :   -0.011869
   1 N :    0.032574
   2 N :   -0.168523
   3 H :    0.003302
   4 H :    0.031556
   5 H :    0.053286
   6 H :    0.059674

  Mayer bond orders larger than 0.1
B(  0-C ,  1-N ) :   1.1934 B(  0-C ,  2-N ) :   1.9850 B(  0-C ,  3-H ) :   0.9605
B(  1-N ,  5-H ) :   0.9821 B(  1-N ,  6-H ) :   0.9676 B(  2-N ,  4-H ) :   0.9685

E(0)                                       ...   -149.092570280
E(0)                                       ...   -149.092570280
E(CORR)(strong-pairs)                      ...     -0.495138294
E(CORR)(weak-pairs)                        ...     -0.000061371
E(CORR)(corrected)                         ...     -0.495199665
E(TOT)                                     ...   -149.587769945
E(CCSD(T))                                 ...   -149.602759404
FINAL SINGLE POINT ENERGY      -149.602759404262

DIPOLE MOMENT
-------------
                                X             Y             Z
Electronic contribution:      0.29373      -0.15695      -0.00000
Nuclear contribution   :     -1.34408       0.66507       0.00000
                        -----------------------------------------
Total Dipole Moment    :     -1.05034       0.50812      -0.00000
                        -----------------------------------------
Magnitude (a.u.)       :      1.16680
Magnitude (Debye)      :      2.96576

Rotational constants in cm-1:     2.255927     0.358220     0.309133
Rotational constants in MHz : 67630.996781 10739.174471  9267.570333

                             ****ORCA TERMINATED NORMALLY****
TOTAL RUN TIME: 0 days 0 hours 0 minutes 12 seconds 356 msec
