                         Program Version 4.1.x  -  STABLE  -
|  1> ! RHF DLPNO-CCSD(T) cc-pVDZ RIJK cc-pVTZ/JK cc-pVDZ/C
|  2> ! KDIIS SOSCF TightSCF TightPNO
|  3>
|  4> %pal nprocs 4 end
|  5>
|  6> %maxcore 8000
|  7>
|  8> %scf maxiter 300
|  9>      shift shift 0.2 erroff 0.1 end
| 10> end
| 11>
| 12> * xyzfile 0 1 Formaldehyde_dimethylacetal_ag_dimethoxymethane.xyz
| 13>
| 14>
| 15>                          ****END OF INPUT****

CARTESIAN COORDINATES (ANGSTROEM)
---------------------------------
  C     -1.938130   -0.616170    0.133910
  O     -1.269390    0.575770   -0.275100
  C      0.025950    0.696450    0.203880
  O      0.854390   -0.294560   -0.380670
  C      2.185500   -0.252840    0.103070
  H     -2.966560   -0.530270   -0.221190
  H     -1.469470   -1.504100   -0.302200
  H     -1.939160   -0.705900    1.230390
  H      0.370980    1.701210   -0.078000
  H      0.055300    0.585820    1.306550
  H      2.732980   -1.051710   -0.400450
  H      2.668730    0.709670   -0.124900
  H      2.227200   -0.418990    1.190800

 Total Charge           Charge          ....    0
 Multiplicity           Mult            ....    1
 Number of Electrons    NEL             ....   42
 Basis Dimension        Dim             ....  110

ORBITAL ENERGIES
----------------

  NO   OCC          E(Eh)            E(eV)
   0   2.0000     -20.558163      -559.4160
   1   2.0000     -20.556611      -559.3738
   2   2.0000     -11.330982      -308.3317
   3   2.0000     -11.283128      -307.0295
   4   2.0000     -11.274600      -306.7975
   5   2.0000      -1.410806       -38.3900
   6   2.0000      -1.343011       -36.5452
   7   2.0000      -0.977444       -26.5976
   8   2.0000      -0.922628       -25.1060
   9   2.0000      -0.845920       -23.0186
  10   2.0000      -0.689570       -18.7642
  11   2.0000      -0.679079       -18.4787
  12   2.0000      -0.670963       -18.2578
  13   2.0000      -0.612240       -16.6599
  14   2.0000      -0.585448       -15.9309
  15   2.0000      -0.580138       -15.7863
  16   2.0000      -0.534016       -14.5313
  17   2.0000      -0.494435       -13.4543
  18   2.0000      -0.485007       -13.1977
  19   2.0000      -0.435393       -11.8476
  20   2.0000      -0.421736       -11.4760
  21   0.0000       0.181269         4.9326
  22   0.0000       0.207707         5.6520
  23   0.0000       0.232997         6.3402
  24   0.0000       0.242466         6.5978
  25   0.0000       0.264050         7.1852

MULLIKEN ATOMIC CHARGES
-----------------------
   0 C :    0.166430
   1 O :   -0.478103
   2 C :    0.433448
   3 O :   -0.495136
   4 C :    0.161151
   5 H :    0.043213
   6 H :    0.043004
   7 H :    0.013677
   8 H :    0.030313
   9 H :   -0.004241
  10 H :    0.047991
  11 H :    0.019816
  12 H :    0.018437
Sum of atomic charges:   -0.0000000

LOEWDIN ATOMIC CHARGES
----------------------
   0 C :    0.023836
   1 O :   -0.062024
   2 C :    0.035720
   3 O :   -0.092724
   4 C :    0.012983
   5 H :    0.022636
   6 H :    0.015235
   7 H :    0.006993
   8 H :    0.008281
   9 H :   -0.011076
  10 H :    0.024830
  11 H :    0.008483
  12 H :    0.006827

  Mayer bond orders larger than 0.1
B(  0-C ,  1-O ) :   0.9485 B(  0-C ,  5-H ) :   0.9945 B(  0-C ,  6-H ) :   0.9840
B(  0-C ,  7-H ) :   0.9805 B(  1-O ,  2-C ) :   1.0468 B(  2-C ,  3-O ) :   0.9532
B(  2-C ,  8-H ) :   0.9770 B(  2-C ,  9-H ) :   0.9681 B(  3-O ,  4-C ) :   0.9744
B(  4-C , 10-H ) :   0.9944 B(  4-C , 11-H ) :   0.9810 B(  4-C , 12-H ) :   0.9809

E(0)                                       ...   -267.968228597
E(0)                                       ...   -267.968228597
E(CORR)(strong-pairs)                      ...     -0.852296846
E(CORR)(weak-pairs)                        ...     -0.000227938
E(CORR)(corrected)                         ...     -0.852524784
E(TOT)                                     ...   -268.820753381
E(CCSD(T))                                 ...   -268.842320665
FINAL SINGLE POINT ENERGY      -268.842320665269

DIPOLE MOMENT
-------------
                                X             Y             Z
Electronic contribution:     -1.32079       1.13352      -1.99175
Nuclear contribution   :      1.73470      -1.25411       2.68545
                        -----------------------------------------
Total Dipole Moment    :      0.41391      -0.12059       0.69370
                        -----------------------------------------
Magnitude (a.u.)       :      0.81675
Magnitude (Debye)      :      2.07602

Rotational constants in cm-1:     0.479700     0.091623     0.084052
Rotational constants in MHz : 14381.045139  2746.795403  2519.813059

                             ****ORCA TERMINATED NORMALLY****
TOTAL RUN TIME: 0 days 0 hours 0 minutes 44 seconds 189 msec
