                         Program Version 4.1.x  -  STABLE  -
|  1> ! RHF DLPNO-CCSD(T) cc-pVDZ RIJK cc-pVTZ/JK cc-pVDZ/C
|  2> ! KDIIS SOSCF TightSCF TightPNO
|  3>
|  4> %pal nprocs 4 end
|  5>
|  6> %maxcore 8000
|  7>
|  8> %scf maxiter 300
|  9>      shift shift 0.2 erroff 0.1 end
| 10> end
| 11>
| 12> * xyzfile 0 1 Formaldehyde_dimethylacetal_g_g__dimethoxymethane.xyz
| 13>
| 14>
| 15>                          ****END OF INPUT****

CARTESIAN COORDINATES (ANGSTROEM)
---------------------------------
  C      1.838260   -0.559510    0.232840
  O      0.982860    0.159250   -0.652720
  C      0.000010    0.924680    0.000010
  O     -0.982850    0.159250    0.652710
  C     -1.838270   -0.559500   -0.232840
  H      2.581540   -1.061630   -0.389260
  H      2.348610    0.126130    0.925050
  H      1.282690   -1.304010    0.814680
  H      0.447400    1.548500    0.785450
  H     -0.447380    1.548490   -0.785450
  H     -2.581480   -1.061720    0.389260
  H     -2.348720    0.126160   -0.924950
  H     -1.282700   -1.303920   -0.814780

 Total Charge           Charge          ....    0
 Multiplicity           Mult            ....    1
 Number of Electrons    NEL             ....   42
 Basis Dimension        Dim             ....  110

ORBITAL ENERGIES
----------------

  NO   OCC          E(Eh)            E(eV)
   0   2.0000     -20.558340      -559.4209
   1   2.0000     -20.558320      -559.4203
   2   2.0000     -11.328719      -308.2701
   3   2.0000     -11.276579      -306.8513
   4   2.0000     -11.276578      -306.8513
   5   2.0000      -1.408105       -38.3165
   6   2.0000      -1.340387       -36.4738
   7   2.0000      -0.977200       -26.5910
   8   2.0000      -0.928781       -25.2734
   9   2.0000      -0.836113       -22.7518
  10   2.0000      -0.685834       -18.6625
  11   2.0000      -0.683022       -18.5860
  12   2.0000      -0.667712       -18.1694
  13   2.0000      -0.604891       -16.4599
  14   2.0000      -0.596383       -16.2284
  15   2.0000      -0.568611       -15.4727
  16   2.0000      -0.526480       -14.3263
  17   2.0000      -0.517543       -14.0831
  18   2.0000      -0.458760       -12.4835
  19   2.0000      -0.437069       -11.8933
  20   2.0000      -0.435169       -11.8415
  21   0.0000       0.186591         5.0774
  22   0.0000       0.213521         5.8102
  23   0.0000       0.231143         6.2897
  24   0.0000       0.241401         6.5688
  25   0.0000       0.264904         7.2084

MULLIKEN ATOMIC CHARGES
-----------------------
   0 C :    0.163760
   1 O :   -0.500465
   2 C :    0.430312
   3 O :   -0.500467
   4 C :    0.163762
   5 H :    0.042613
   6 H :    0.019029
   7 H :    0.033718
   8 H :    0.026190
   9 H :    0.026185
  10 H :    0.042613
  11 H :    0.019030
  12 H :    0.033719
Sum of atomic charges:   -0.0000000

LOEWDIN ATOMIC CHARGES
----------------------
   0 C :    0.019070
   1 O :   -0.086174
   2 C :    0.034722
   3 O :   -0.086172
   4 C :    0.019073
   5 H :    0.022105
   6 H :    0.008674
   7 H :    0.011840
   8 H :    0.007121
   9 H :    0.007121
  10 H :    0.022105
  11 H :    0.008674
  12 H :    0.011841

  Mayer bond orders larger than 0.1
B(  0-C ,  1-O ) :   0.9556 B(  0-C ,  5-H ) :   0.9941 B(  0-C ,  6-H ) :   0.9829
B(  0-C ,  7-H ) :   0.9835 B(  1-O ,  2-C ) :   0.9939 B(  2-C ,  3-O ) :   0.9939
B(  2-C ,  8-H ) :   0.9769 B(  2-C ,  9-H ) :   0.9769 B(  3-O ,  4-C ) :   0.9556
B(  4-C , 10-H ) :   0.9941 B(  4-C , 11-H ) :   0.9829 B(  4-C , 12-H ) :   0.9835

E(0)                                       ...   -267.972099762
E(0)                                       ...   -267.972099762
E(CORR)(strong-pairs)                      ...     -0.853142710
E(CORR)(weak-pairs)                        ...     -0.000231155
E(CORR)(corrected)                         ...     -0.853373866
E(TOT)                                     ...   -268.825473627
E(CCSD(T))                                 ...   -268.847176811
FINAL SINGLE POINT ENERGY      -268.847176810683

DIPOLE MOMENT
-------------
                                X             Y             Z
Electronic contribution:      0.00004       1.34918       0.00001
Nuclear contribution   :     -0.00005      -1.42736       0.00000
                        -----------------------------------------
Total Dipole Moment    :     -0.00001      -0.07819       0.00002
                        -----------------------------------------
Magnitude (a.u.)       :      0.07819
Magnitude (Debye)      :      0.19874

Rotational constants in cm-1:     0.347745     0.105420     0.099327
Rotational constants in MHz : 10425.125774  3160.419969  2977.762496

                             ****ORCA TERMINATED NORMALLY****
TOTAL RUN TIME: 0 days 0 hours 0 minutes 44 seconds 755 msec
