                         Program Version 4.1.x  -  STABLE  -
|  1> ! RHF DLPNO-CCSD(T) cc-pVDZ RIJK cc-pVTZ/JK cc-pVDZ/C
|  2> ! KDIIS SOSCF TightSCF TightPNO
|  3>
|  4> %pal nprocs 4 end
|  5>
|  6> %maxcore 8000
|  7>
|  8> %scf maxiter 300
|  9>      shift shift 0.2 erroff 0.1 end
| 10> end
| 11>
| 12> * xyzfile 0 1 formic_acid_E.xyz
| 13>
| 14>
| 15>                          ****END OF INPUT****

CARTESIAN COORDINATES (ANGSTROEM)
---------------------------------
  C      0.000000    0.387270    0.000000
  O     -0.901470   -0.622960    0.000000
  O      1.184070    0.191990    0.000000
  H     -0.457070    1.393420    0.000000
  H     -1.803740   -0.269240    0.000000

 Total Charge           Charge          ....    0
 Multiplicity           Mult            ....    1
 Number of Electrons    NEL             ....   24
 Basis Dimension        Dim             ....   52

ORBITAL ENERGIES
----------------

  NO   OCC          E(Eh)            E(eV)
   0   2.0000     -20.622413      -561.1644
   1   2.0000     -20.559742      -559.4590
   2   2.0000     -11.399962      -310.2087
   3   2.0000      -1.463798       -39.8320
   4   2.0000      -1.372527       -37.3484
   5   2.0000      -0.863833       -23.5061
   6   2.0000      -0.784750       -21.3541
   7   2.0000      -0.661963       -18.0129
   8   2.0000      -0.625450       -17.0193
   9   2.0000      -0.590964       -16.0809
  10   2.0000      -0.482389       -13.1265
  11   2.0000      -0.459986       -12.5169
  12   0.0000       0.156368         4.2550
  13   0.0000       0.173340         4.7168
  14   0.0000       0.217678         5.9233
  15   0.0000       0.407315        11.0836
  16   0.0000       0.454691        12.3728

MULLIKEN ATOMIC CHARGES
-----------------------
   0 C :    0.406847
   1 O :   -0.284896
   2 O :   -0.335140
   3 H :    0.031430
   4 H :    0.181759
Sum of atomic charges:    0.0000000

LOEWDIN ATOMIC CHARGES
----------------------
   0 C :    0.002601
   1 O :    0.017894
   2 O :   -0.086832
   3 H :   -0.005060
   4 H :    0.071397

  Mayer bond orders larger than 0.1
B(  0-C ,  1-O ) :   1.1415 B(  0-C ,  2-O ) :   2.1245 B(  0-C ,  3-H ) :   0.9599
B(  1-O ,  4-H ) :   0.9834

E(0)                                       ...   -188.771571093
E(0)                                       ...   -188.771571093
E(CORR)(strong-pairs)                      ...     -0.513634574
E(CORR)(weak-pairs)                        ...     -0.000052467
E(CORR)(corrected)                         ...     -0.513687040
E(TOT)                                     ...   -189.285258133
E(CCSD(T))                                 ...   -189.299403743
FINAL SINGLE POINT ENERGY      -189.299403743413

DIPOLE MOMENT
-------------
                                X             Y             Z
Electronic contribution:      0.66091      -0.35684      -0.00000
Nuclear contribution   :     -2.20972       1.09429       0.00000
                        -----------------------------------------
Total Dipole Moment    :     -1.54880       0.73744      -0.00000
                        -----------------------------------------
Magnitude (a.u.)       :      1.71541
Magnitude (Debye)      :      4.36022

Rotational constants in cm-1:     2.883568     0.386904     0.341132
Rotational constants in MHz : 86447.195010 11599.078981 10226.883713

                             ****ORCA TERMINATED NORMALLY****
TOTAL RUN TIME: 0 days 0 hours 0 minutes 8 seconds 949 msec
