                         Program Version 4.1.x  -  STABLE  -
|  1> ! RHF DLPNO-CCSD(T) cc-pVDZ RIJK cc-pVTZ/JK cc-pVDZ/C
|  2> ! KDIIS SOSCF TightSCF TightPNO
|  3>
|  4> %pal nprocs 4 end
|  5>
|  6> %maxcore 8000
|  7>
|  8> %scf maxiter 300
|  9>      shift shift 0.2 erroff 0.1 end
| 10> end
| 11>
| 12> * xyzfile 0 1 Formaldehyde_dimethylacetal_aa_dimethoxymethane.xyz
| 13>
| 14>
| 15>                          ****END OF INPUT****

CARTESIAN COORDINATES (ANGSTROEM)
---------------------------------
  C     -2.339300    0.194120   -0.000090
  O     -1.117520   -0.523350    0.000130
  C     -0.000000    0.316750    0.000110
  O      1.117530   -0.523350   -0.000100
  C      2.339290    0.194120   -0.000030
  H     -3.139200   -0.547950   -0.000110
  H     -2.436560    0.827810    0.894630
  H     -2.436370    0.827570   -0.895020
  H     -0.000100    0.964440   -0.900630
  H      0.000100    0.964230    0.900980
  H      3.139210   -0.547930   -0.000210
  H      2.436430    0.827840   -0.894740
  H      2.436510    0.827540    0.894900

 Total Charge           Charge          ....    0
 Multiplicity           Mult            ....    1
 Number of Electrons    NEL             ....   42
 Basis Dimension        Dim             ....  110

ORBITAL ENERGIES
----------------

  NO   OCC          E(Eh)            E(eV)
   0   2.0000     -20.557695      -559.4033
   1   2.0000     -20.557687      -559.4031
   2   2.0000     -11.333124      -308.3900
   3   2.0000     -11.282637      -307.0162
   4   2.0000     -11.282632      -307.0160
   5   2.0000      -1.413910       -38.4744
   6   2.0000      -1.347399       -36.6646
   7   2.0000      -0.980929       -26.6924
   8   2.0000      -0.911999       -24.8167
   9   2.0000      -0.859275       -23.3821
  10   2.0000      -0.694775       -18.9058
  11   2.0000      -0.675844       -18.3906
  12   2.0000      -0.673977       -18.3398
  13   2.0000      -0.621269       -16.9056
  14   2.0000      -0.589576       -16.0432
  15   2.0000      -0.561983       -15.2923
  16   2.0000      -0.552163       -15.0251
  17   2.0000      -0.500907       -13.6304
  18   2.0000      -0.480067       -13.0633
  19   2.0000      -0.443815       -12.0768
  20   2.0000      -0.411475       -11.1968
  21   0.0000       0.177446         4.8286
  22   0.0000       0.193606         5.2683
  23   0.0000       0.235491         6.4080
  24   0.0000       0.244539         6.6542
  25   0.0000       0.262709         7.1487

MULLIKEN ATOMIC CHARGES
-----------------------
   0 C :    0.155528
   1 O :   -0.459748
   2 C :    0.440850
   3 O :   -0.459743
   4 C :    0.155532
   5 H :    0.050934
   6 H :    0.019549
   7 H :    0.019552
   8 H :   -0.006240
   9 H :   -0.006234
  10 H :    0.050930
  11 H :    0.019543
  12 H :    0.019548
Sum of atomic charges:   -0.0000000

LOEWDIN ATOMIC CHARGES
----------------------
   0 C :    0.015376
   1 O :   -0.064415
   2 C :    0.037210
   3 O :   -0.064409
   4 C :    0.015364
   5 H :    0.026237
   6 H :    0.007754
   7 H :    0.007758
   8 H :   -0.011309
   9 H :   -0.011309
  10 H :    0.026236
  11 H :    0.007752
  12 H :    0.007755

  Mayer bond orders larger than 0.1
B(  0-C ,  1-O ) :   0.9741 B(  0-C ,  5-H ) :   0.9951 B(  0-C ,  6-H ) :   0.9805
B(  0-C ,  7-H ) :   0.9805 B(  1-O ,  2-C ) :   1.0033 B(  2-C ,  3-O ) :   1.0033
B(  2-C ,  8-H ) :   0.9658 B(  2-C ,  9-H ) :   0.9658 B(  3-O ,  4-C ) :   0.9741
B(  4-C , 10-H ) :   0.9951 B(  4-C , 11-H ) :   0.9805 B(  4-C , 12-H ) :   0.9805

E(0)                                       ...   -267.963192930
E(0)                                       ...   -267.963192930
E(CORR)(strong-pairs)                      ...     -0.851722186
E(CORR)(weak-pairs)                        ...     -0.000305136
E(CORR)(corrected)                         ...     -0.852027323
E(TOT)                                     ...   -268.815220253
E(CCSD(T))                                 ...   -268.836664508
FINAL SINGLE POINT ENERGY      -268.836664507562

DIPOLE MOMENT
-------------
                                X             Y             Z
Electronic contribution:     -0.00006      -3.16759       0.00020
Nuclear contribution   :      0.00001       4.27807      -0.00020
                        -----------------------------------------
Total Dipole Moment    :     -0.00004       1.11048      -0.00001
                        -----------------------------------------
Magnitude (a.u.)       :      1.11048
Magnitude (Debye)      :      2.82261

Rotational constants in cm-1:     0.812031     0.076597     0.072941
Rotational constants in MHz : 24344.069545  2296.309029  2186.705297

                             ****ORCA TERMINATED NORMALLY****
TOTAL RUN TIME: 0 days 0 hours 0 minutes 42 seconds 188 msec
