                         Program Version 4.1.x  -  STABLE  -
|  1> ! RHF DLPNO-CCSD(T) cc-pVDZ RIJK cc-pVTZ/JK cc-pVDZ/C
|  2> ! KDIIS SOSCF TightSCF TightPNO
|  3>
|  4> %pal nprocs 4 end
|  5>
|  6> %maxcore 8000
|  7>
|  8> %scf maxiter 300
|  9>      shift shift 0.2 erroff 0.1 end
| 10> end
| 11>
| 12> * xyzfile 0 1 glycolic_acid_sk.xyz
| 13>
| 14>
| 15>                          ****END OF INPUT****

CARTESIAN COORDINATES (ANGSTROEM)
---------------------------------
  C     -0.778070   -0.698670    0.000100
  O     -1.786320    0.292600   -0.000370
  C      0.613410   -0.093280    0.000080
  O      1.613050   -0.783050   -0.000110
  O      0.637950    1.249940    0.000120
  H     -0.827910   -1.347370   -0.886160
  H     -0.828170   -1.346920    0.886660
  H      1.574930    1.512100   -0.000050
  H     -2.648350   -0.142040    0.001340

 Total Charge           Charge          ....    0
 Multiplicity           Mult            ....    1
 Number of Electrons    NEL             ....   40
 Basis Dimension        Dim             ....   90

ORBITAL ENERGIES
----------------

  NO   OCC          E(Eh)            E(eV)
   0   2.0000     -20.614574      -560.9511
   1   2.0000     -20.574537      -559.8616
   2   2.0000     -20.548954      -559.1655
   3   2.0000     -11.393847      -310.0423
   4   2.0000     -11.311328      -307.7969
   5   2.0000      -1.465545       -39.8795
   6   2.0000      -1.376403       -37.4538
   7   2.0000      -1.358723       -36.9727
   8   2.0000      -0.999857       -27.2075
   9   2.0000      -0.825345       -22.4588
  10   2.0000      -0.720973       -19.6187
  11   2.0000      -0.685596       -18.6560
  12   2.0000      -0.677663       -18.4402
  13   2.0000      -0.672728       -18.3059
  14   2.0000      -0.598711       -16.2917
  15   2.0000      -0.580484       -15.7958
  16   2.0000      -0.536960       -14.6114
  17   2.0000      -0.488916       -13.3041
  18   2.0000      -0.454633       -12.3712
  19   2.0000      -0.449699       -12.2369
  20   0.0000       0.166207         4.5227
  21   0.0000       0.174621         4.7517
  22   0.0000       0.198351         5.3974
  23   0.0000       0.221039         6.0148
  24   0.0000       0.268516         7.3067

MULLIKEN ATOMIC CHARGES
-----------------------
   0 C :    0.211674
   1 O :   -0.361908
   2 C :    0.338194
   3 O :   -0.394925
   4 O :   -0.276806
   5 H :    0.059351
   6 H :    0.059334
   7 H :    0.190084
   8 H :    0.175001
Sum of atomic charges:   -0.0000000

LOEWDIN ATOMIC CHARGES
----------------------
   0 C :    0.002612
   1 O :   -0.064014
   2 C :   -0.034953
   3 O :   -0.143324
   4 O :    0.040380
   5 H :    0.031380
   6 H :    0.031373
   7 H :    0.079926
   8 H :    0.056621

  Mayer bond orders larger than 0.1
B(  0-C ,  1-O ) :   1.0301 B(  0-C ,  2-C ) :   0.9879 B(  0-C ,  5-H ) :   0.9599
B(  0-C ,  6-H ) :   0.9598 B(  1-O ,  8-H ) :   0.9916 B(  2-C ,  3-O ) :   2.0394
B(  2-C ,  4-O ) :   1.1957 B(  4-O ,  7-H ) :   0.9726

E(0)                                       ...   -302.679899279
E(0)                                       ...   -302.679899279
E(CORR)(strong-pairs)                      ...     -0.845685400
E(CORR)(weak-pairs)                        ...     -0.000204154
E(CORR)(corrected)                         ...     -0.845889554
E(TOT)                                     ...   -303.525788834
E(CCSD(T))                                 ...   -303.548586678
FINAL SINGLE POINT ENERGY      -303.548586678375

DIPOLE MOMENT
-------------
                                X             Y             Z
Electronic contribution:      1.95198       1.10907      -0.00034
Nuclear contribution   :     -2.68895      -1.29624       0.00176
                        -----------------------------------------
Total Dipole Moment    :     -0.73697      -0.18717       0.00142
                        -----------------------------------------
Magnitude (a.u.)       :      0.76037
Magnitude (Debye)      :      1.93270

Rotational constants in cm-1:     0.341574     0.136214     0.099196
Rotational constants in MHz : 10240.145588  4083.598884  2973.816260

                             ****ORCA TERMINATED NORMALLY****
TOTAL RUN TIME: 0 days 0 hours 0 minutes 32 seconds 577 msec
