                         Program Version 4.1.x  -  STABLE  -
|  1> ! RHF DLPNO-CCSD(T) cc-pVDZ RIJK cc-pVTZ/JK cc-pVDZ/C
|  2> ! KDIIS SOSCF TightSCF TightPNO
|  3>
|  4> %pal nprocs 4 end
|  5>
|  6> %maxcore 8000
|  7>
|  8> %scf maxiter 300
|  9>      shift shift 0.2 erroff 0.1 end
| 10> end
| 11>
| 12> * xyzfile 0 1 glycolic_acid_cis.xyz
| 13>
| 14>
| 15>                          ****END OF INPUT****

CARTESIAN COORDINATES (ANGSTROEM)
---------------------------------
  C      0.760210   -0.673790    0.000110
  O      1.850450    0.219870   -0.000120
  C     -0.533470    0.120100    0.000100
  O     -0.648250    1.320400    0.000030
  O     -1.592570   -0.733540   -0.000100
  H      0.746140   -1.324730    0.887050
  H      0.746000   -1.325040   -0.886590
  H     -2.399110   -0.191030   -0.000150
  H      2.669430   -0.290890   -0.000130

 Total Charge           Charge          ....    0
 Multiplicity           Mult            ....    1
 Number of Electrons    NEL             ....   40
 Basis Dimension        Dim             ....   90

ORBITAL ENERGIES
----------------

  NO   OCC          E(Eh)            E(eV)
   0   2.0000     -20.614560      -560.9507
   1   2.0000     -20.572023      -559.7932
   2   2.0000     -20.553145      -559.2795
   3   2.0000     -11.391792      -309.9864
   4   2.0000     -11.311559      -307.8032
   5   2.0000      -1.463334       -39.8193
   6   2.0000      -1.378302       -37.5055
   7   2.0000      -1.357849       -36.9490
   8   2.0000      -1.003864       -27.3165
   9   2.0000      -0.813984       -22.1496
  10   2.0000      -0.729162       -19.8415
  11   2.0000      -0.695986       -18.9387
  12   2.0000      -0.673155       -18.3175
  13   2.0000      -0.659061       -17.9340
  14   2.0000      -0.598448       -16.2846
  15   2.0000      -0.591526       -16.0962
  16   2.0000      -0.535768       -14.5790
  17   2.0000      -0.479587       -13.0502
  18   2.0000      -0.464398       -12.6369
  19   2.0000      -0.448085       -12.1930
  20   0.0000       0.170791         4.6475
  21   0.0000       0.178589         4.8596
  22   0.0000       0.186801         5.0831
  23   0.0000       0.225768         6.1435
  24   0.0000       0.263607         7.1731

MULLIKEN ATOMIC CHARGES
-----------------------
   0 C :    0.204874
   1 O :   -0.349808
   2 C :    0.341318
   3 O :   -0.348713
   4 O :   -0.322213
   5 H :    0.054132
   6 H :    0.054140
   7 H :    0.194003
   8 H :    0.172269
Sum of atomic charges:   -0.0000000

LOEWDIN ATOMIC CHARGES
----------------------
   0 C :   -0.002110
   1 O :   -0.052742
   2 C :   -0.036008
   3 O :   -0.102373
   4 O :    0.005487
   5 H :    0.027222
   6 H :    0.027223
   7 H :    0.077675
   8 H :    0.055625

  Mayer bond orders larger than 0.1
B(  0-C ,  1-O ) :   1.0462 B(  0-C ,  2-C ) :   0.9827 B(  0-C ,  5-H ) :   0.9575
B(  0-C ,  6-H ) :   0.9575 B(  1-O ,  8-H ) :   0.9932 B(  2-C ,  3-O ) :   2.1020
B(  2-C ,  4-O ) :   1.1439 B(  4-O ,  7-H ) :   0.9716

E(0)                                       ...   -302.680407540
E(0)                                       ...   -302.680407540
E(CORR)(strong-pairs)                      ...     -0.846168220
E(CORR)(weak-pairs)                        ...     -0.000197570
E(CORR)(corrected)                         ...     -0.846365790
E(TOT)                                     ...   -303.526773330
E(CCSD(T))                                 ...   -303.549515021
FINAL SINGLE POINT ENERGY      -303.549515020651

DIPOLE MOMENT
-------------
                                X             Y             Z
Electronic contribution:     -1.61506       1.75527      -0.00004
Nuclear contribution   :      1.73488      -3.08091       0.00018
                        -----------------------------------------
Total Dipole Moment    :      0.11982      -1.32564       0.00014
                        -----------------------------------------
Magnitude (a.u.)       :      1.33104
Magnitude (Debye)      :      3.38325

Rotational constants in cm-1:     0.351542     0.131531     0.097473
Rotational constants in MHz : 10538.956768  3943.207459  2922.162808

                             ****ORCA TERMINATED NORMALLY****
TOTAL RUN TIME: 0 days 0 hours 1 minutes 4 seconds 971 msec
