                         Program Version 4.1.x  -  STABLE  -
|  1> ! RHF DLPNO-CCSD(T) cc-pVDZ RIJK cc-pVTZ/JK cc-pVDZ/C
|  2> ! KDIIS SOSCF TightSCF TightPNO
|  3>
|  4> %pal nprocs 4 end
|  5>
|  6> %maxcore 8000
|  7>
|  8> %scf maxiter 300
|  9>      shift shift 0.2 erroff 0.1 end
| 10> end
| 11>
| 12> * xyzfile 0 1 hexahydropyrimidine_lp_H.xyz
| 13>
| 14>
| 15>                          ****END OF INPUT****

CARTESIAN COORDINATES (ANGSTROEM)
---------------------------------
  C      1.172340   -0.757530    0.212430
  N      1.219370    0.613820   -0.317390
  C      0.106640    1.423250    0.193610
  C     -1.218450    0.767530   -0.218280
  C     -1.240680   -0.706240    0.226140
  N     -0.041070   -1.452850   -0.181450
  H     -0.039120   -1.562210   -1.193970
  H      2.112890    1.048780   -0.100140
  H     -1.318150    0.823580   -1.309840
  H      0.132910    1.515250    1.297980
  H      0.183450    2.434170   -0.220690
  H     -2.123120   -1.223260   -0.165750
  H     -1.301840   -0.758630    1.322400
  H      2.042030   -1.306230   -0.161840
  H      1.206880   -0.773290    1.318330
  H     -2.063150    1.312990    0.222010

 Total Charge           Charge          ....    0
 Multiplicity           Mult            ....    1
 Number of Electrons    NEL             ....   48
 Basis Dimension        Dim             ....  134

ORBITAL ENERGIES
----------------

  NO   OCC          E(Eh)            E(eV)
   0   2.0000     -15.537824      -422.8057
   1   2.0000     -15.536848      -422.7791
   2   2.0000     -11.273710      -306.7732
   3   2.0000     -11.250971      -306.1545
   4   2.0000     -11.248613      -306.0903
   5   2.0000     -11.220829      -305.3343
   6   2.0000      -1.239168       -33.7195
   7   2.0000      -1.146444       -31.1963
   8   2.0000      -1.032781       -28.1034
   9   2.0000      -0.879099       -23.9215
  10   2.0000      -0.866902       -23.5896
  11   2.0000      -0.775948       -21.1146
  12   2.0000      -0.684108       -18.6155
  13   2.0000      -0.634907       -17.2767
  14   2.0000      -0.619395       -16.8546
  15   2.0000      -0.596916       -16.2429
  16   2.0000      -0.567015       -15.4293
  17   2.0000      -0.549528       -14.9534
  18   2.0000      -0.530104       -14.4249
  19   2.0000      -0.491029       -13.3616
  20   2.0000      -0.477826       -13.0023
  21   2.0000      -0.460303       -12.5255
  22   2.0000      -0.367075        -9.9886
  23   2.0000      -0.364001        -9.9050
  24   0.0000       0.182295         4.9605
  25   0.0000       0.202050         5.4981
  26   0.0000       0.214734         5.8432
  27   0.0000       0.226312         6.1583
  28   0.0000       0.252157         6.8616

MULLIKEN ATOMIC CHARGES
-----------------------
   0 C :    0.246730
   1 N :   -0.386279
   2 C :    0.082423
   3 C :   -0.042600
   4 C :    0.086647
   5 N :   -0.367353
   6 H :    0.096799
   7 H :    0.095098
   8 H :    0.028048
   9 H :    0.005934
  10 H :    0.028714
  11 H :    0.030799
  12 H :    0.028694
  13 H :    0.030775
  14 H :    0.014267
  15 H :    0.021305
Sum of atomic charges:    0.0000000

LOEWDIN ATOMIC CHARGES
----------------------
   0 C :   -0.002020
   1 N :   -0.058559
   2 C :   -0.013705
   3 C :   -0.047126
   4 C :   -0.013073
   5 N :   -0.033986
   6 H :    0.034693
   7 H :    0.034452
   8 H :    0.017175
   9 H :   -0.002424
  10 H :    0.016871
  11 H :    0.018513
  12 H :    0.015480
  13 H :    0.015713
  14 H :   -0.001689
  15 H :    0.019684

  Mayer bond orders larger than 0.1
B(  0-C ,  1-N ) :   1.0048 B(  0-C ,  5-N ) :   1.0498 B(  0-C , 13-H ) :   0.9806
B(  0-C , 14-H ) :   0.9640 B(  1-N ,  2-C ) :   1.0221 B(  1-N ,  7-H ) :   0.9681
B(  2-C ,  3-C ) :   1.0408 B(  2-C ,  9-H ) :   0.9609 B(  2-C , 10-H ) :   0.9778
B(  3-C ,  4-C ) :   1.0356 B(  3-C ,  8-H ) :   0.9606 B(  3-C , 15-H ) :   0.9688
B(  4-C ,  5-N ) :   1.0258 B(  4-C , 11-H ) :   0.9813 B(  4-C , 12-H ) :   0.9682
B(  5-N ,  6-H ) :   0.9687

E(0)                                       ...   -266.194381281
E(0)                                       ...   -266.194381281
E(CORR)(strong-pairs)                      ...     -0.967071126
E(CORR)(weak-pairs)                        ...     -0.000359388
E(CORR)(corrected)                         ...     -0.967430514
E(TOT)                                     ...   -267.161811795
E(CCSD(T))                                 ...   -267.190680871
FINAL SINGLE POINT ENERGY      -267.190680871101

DIPOLE MOMENT
-------------
                                X             Y             Z
Electronic contribution:      1.28955      -1.14021      -0.94601
Nuclear contribution   :     -1.21431       1.57634       1.05237
                        -----------------------------------------
Total Dipole Moment    :      0.07524       0.43613       0.10636
                        -----------------------------------------
Magnitude (a.u.)       :      0.45517
Magnitude (Debye)      :      1.15695

Rotational constants in cm-1:     0.155426     0.152155     0.086835
Rotational constants in MHz :  4659.564903  4561.483817  2603.247381

                             ****ORCA TERMINATED NORMALLY****
TOTAL RUN TIME: 0 days 0 hours 1 minutes 37 seconds 108 msec
