                         Program Version 4.1.x  -  STABLE  -
|  1> ! RHF DLPNO-CCSD(T) cc-pVDZ RIJK cc-pVTZ/JK cc-pVDZ/C
|  2> ! KDIIS SOSCF TightSCF TightPNO
|  3>
|  4> %pal nprocs 4 end
|  5>
|  6> %maxcore 8000
|  7>
|  8> %scf maxiter 300
|  9>      shift shift 0.2 erroff 0.1 end
| 10> end
| 11>
| 12> * xyzfile 0 1 hexahydropyrimidine_H_H.xyz
| 13>
| 14>
| 15>                          ****END OF INPUT****

CARTESIAN COORDINATES (ANGSTROEM)
---------------------------------
  C      1.402270   -0.000220    0.222400
  N      0.744930    1.248050   -0.174190
  C     -0.672650    1.260960    0.215100
  C     -1.437290    0.000220   -0.230110
  C     -0.673050   -1.260760    0.215090
  N      0.744540   -1.248240   -0.174170
  H      0.827880   -1.378430   -1.180920
  H      0.828250    1.378100   -1.180960
  H     -1.536200    0.000240   -1.325600
  H     -0.709440    1.340170    1.311070
  H     -1.137760    2.169330   -0.182540
  H     -1.138410   -2.168980   -0.182600
  H     -0.709900   -1.340020    1.311060
  H      2.423000   -0.000370   -0.170490
  H      1.464520   -0.000210    1.318660
  H     -2.453900    0.000390    0.185980

 Total Charge           Charge          ....    0
 Multiplicity           Mult            ....    1
 Number of Electrons    NEL             ....   48
 Basis Dimension        Dim             ....  134

ORBITAL ENERGIES
----------------

  NO   OCC          E(Eh)            E(eV)
   0   2.0000     -15.538596      -422.8267
   1   2.0000     -15.538570      -422.8260
   2   2.0000     -11.273247      -306.7606
   3   2.0000     -11.251139      -306.1590
   4   2.0000     -11.251133      -306.1589
   5   2.0000     -11.222949      -305.3920
   6   2.0000      -1.238113       -33.6908
   7   2.0000      -1.147175       -31.2162
   8   2.0000      -1.033208       -28.1150
   9   2.0000      -0.879335       -23.9279
  10   2.0000      -0.870463       -23.6865
  11   2.0000      -0.789731       -21.4897
  12   2.0000      -0.671943       -18.2845
  13   2.0000      -0.646880       -17.6025
  14   2.0000      -0.616660       -16.7802
  15   2.0000      -0.588745       -16.0206
  16   2.0000      -0.573516       -15.6062
  17   2.0000      -0.529644       -14.4123
  18   2.0000      -0.526587       -14.3292
  19   2.0000      -0.495370       -13.4797
  20   2.0000      -0.492548       -13.4029
  21   2.0000      -0.471383       -12.8270
  22   2.0000      -0.390747       -10.6328
  23   2.0000      -0.344631        -9.3779
  24   0.0000       0.174482         4.7479
  25   0.0000       0.197572         5.3762
  26   0.0000       0.219992         5.9863
  27   0.0000       0.221707         6.0330
  28   0.0000       0.257865         7.0169

MULLIKEN ATOMIC CHARGES
-----------------------
   0 C :    0.231918
   1 N :   -0.378616
   2 C :    0.093129
   3 C :   -0.065213
   4 C :    0.093135
   5 N :   -0.378620
   6 H :    0.087067
   7 H :    0.087062
   8 H :    0.014002
   9 H :    0.030624
  10 H :    0.029631
  11 H :    0.029631
  12 H :    0.030627
  13 H :    0.034001
  14 H :    0.038651
  15 H :    0.022970
Sum of atomic charges:    0.0000000

LOEWDIN ATOMIC CHARGES
----------------------
   0 C :   -0.007481
   1 N :   -0.047005
   2 C :   -0.013994
   3 C :   -0.059825
   4 C :   -0.013991
   5 N :   -0.046991
   6 H :    0.028017
   7 H :    0.028012
   8 H :    0.010301
   9 H :    0.016541
  10 H :    0.017814
  11 H :    0.017815
  12 H :    0.016542
  13 H :    0.017830
  14 H :    0.016271
  15 H :    0.020144

  Mayer bond orders larger than 0.1
B(  0-C ,  1-N ) :   1.0298 B(  0-C ,  5-N ) :   1.0298 B(  0-C , 13-H ) :   0.9823
B(  0-C , 14-H ) :   0.9690 B(  1-N ,  2-C ) :   1.0224 B(  1-N ,  7-H ) :   0.9708
B(  2-C ,  3-C ) :   1.0301 B(  2-C ,  9-H ) :   0.9691 B(  2-C , 10-H ) :   0.9825
B(  3-C ,  4-C ) :   1.0301 B(  3-C ,  8-H ) :   0.9620 B(  3-C , 15-H ) :   0.9667
B(  4-C ,  5-N ) :   1.0224 B(  4-C , 11-H ) :   0.9825 B(  4-C , 12-H ) :   0.9691
B(  5-N ,  6-H ) :   0.9708

E(0)                                       ...   -266.194029573
E(0)                                       ...   -266.194029573
E(CORR)(strong-pairs)                      ...     -0.967530180
E(CORR)(weak-pairs)                        ...     -0.000355437
E(CORR)(corrected)                         ...     -0.967885617
E(TOT)                                     ...   -267.161915190
E(CCSD(T))                                 ...   -267.190953446
FINAL SINGLE POINT ENERGY      -267.190953446055

DIPOLE MOMENT
-------------
                                X             Y             Z
Electronic contribution:      1.82496      -0.00027      -0.38305
Nuclear contribution   :     -2.23252       0.00021      -0.10297
                        -----------------------------------------
Total Dipole Moment    :     -0.40756      -0.00006      -0.48602
                        -----------------------------------------
Magnitude (a.u.)       :      0.63429
Magnitude (Debye)      :      1.61223

Rotational constants in cm-1:     0.154019     0.150663     0.086407
Rotational constants in MHz :  4617.369586  4516.764313  2590.405608

                             ****ORCA TERMINATED NORMALLY****
TOTAL RUN TIME: 0 days 0 hours 1 minutes 56 seconds 888 msec
