                         Program Version 4.1.x  -  STABLE  -
|  1> ! RHF DLPNO-CCSD(T) cc-pVDZ RIJK cc-pVTZ/JK cc-pVDZ/C
|  2> ! KDIIS SOSCF TightSCF TightPNO
|  3>
|  4> %pal nprocs 4 end
|  5>
|  6> %maxcore 8000
|  7>
|  8> %scf maxiter 300
|  9>      shift shift 0.2 erroff 0.1 end
| 10> end
| 11>
| 12> * xyzfile 0 1 hydroxycyclohexane_ax.xyz
| 13>
| 14>
| 15>                          ****END OF INPUT****

CARTESIAN COORDINATES (ANGSTROEM)
---------------------------------
  C      1.161990   -0.029990    0.428400
  C      0.337310    1.255890    0.606010
  C     -0.906440    1.286430   -0.296190
  C     -1.773090    0.032560   -0.093970
  C     -0.953640   -1.250300   -0.309640
  C      0.291070   -1.280140    0.591760
  O      1.750730   -0.104460   -0.883010
  H     -1.489960    2.192770   -0.092470
  H     -0.591390    1.341220   -1.345990
  H     -2.633240    0.053710   -0.774570
  H     -2.182690    0.035930    0.927720
  H     -0.638040   -1.308860   -1.358400
  H     -1.572040   -2.134870   -0.113370
  H      0.031590    1.321450    1.660300
  H      0.974150    2.131990    0.417200
  H      0.901590   -2.165490    0.381090
  H     -0.016660   -1.343370    1.644870
  H      1.965660   -0.052100    1.180910
  H      2.302050    0.676580   -1.021460

 Total Charge           Charge          ....    0
 Multiplicity           Mult            ....    1
 Number of Electrons    NEL             ....   56
 Basis Dimension        Dim             ....  158

ORBITAL ENERGIES
----------------

  NO   OCC          E(Eh)            E(eV)
   0   2.0000     -20.547290      -559.1202
   1   2.0000     -11.276650      -306.8533
   2   2.0000     -11.224988      -305.4474
   3   2.0000     -11.220512      -305.3256
   4   2.0000     -11.219286      -305.2923
   5   2.0000     -11.218799      -305.2791
   6   2.0000     -11.215969      -305.2020
   7   2.0000      -1.346684       -36.6451
   8   2.0000      -1.101659       -29.9777
   9   2.0000      -1.002050       -27.2672
  10   2.0000      -0.990033       -26.9402
  11   2.0000      -0.834384       -22.7047
  12   2.0000      -0.823263       -22.4021
  13   2.0000      -0.745204       -20.2780
  14   2.0000      -0.673625       -18.3303
  15   2.0000      -0.650400       -17.6983
  16   2.0000      -0.613657       -16.6984
  17   2.0000      -0.601922       -16.3791
  18   2.0000      -0.560755       -15.2589
  19   2.0000      -0.550114       -14.9694
  20   2.0000      -0.523203       -14.2371
  21   2.0000      -0.516094       -14.0436
  22   2.0000      -0.500638       -13.6230
  23   2.0000      -0.479064       -13.0360
  24   2.0000      -0.462027       -12.5724
  25   2.0000      -0.449282       -12.2256
  26   2.0000      -0.425024       -11.5655
  27   2.0000      -0.412687       -11.2298
  28   0.0000       0.169994         4.6258
  29   0.0000       0.203500         5.5375
  30   0.0000       0.209231         5.6935
  31   0.0000       0.225621         6.1394
  32   0.0000       0.239496         6.5170

MULLIKEN ATOMIC CHARGES
-----------------------
   0 C :    0.121541
   1 C :   -0.030471
   2 C :   -0.032320
   3 C :   -0.048132
   4 C :   -0.039316
   5 C :   -0.007824
   6 O :   -0.387968
   7 H :    0.021727
   8 H :    0.032090
   9 H :    0.023934
  10 H :    0.018817
  11 H :    0.042251
  12 H :    0.020826
  13 H :    0.024199
  14 H :    0.013006
  15 H :    0.035392
  16 H :    0.020084
  17 H :    0.009527
  18 H :    0.162638
Sum of atomic charges:    0.0000000

LOEWDIN ATOMIC CHARGES
----------------------
   0 C :    0.010246
   1 C :   -0.041262
   2 C :   -0.032414
   3 C :   -0.033143
   4 C :   -0.031194
   5 C :   -0.029336
   6 O :   -0.084769
   7 H :    0.018631
   8 H :    0.019004
   9 H :    0.019485
  10 H :    0.013872
  11 H :    0.022746
  12 H :    0.018698
  13 H :    0.020506
  14 H :    0.014656
  15 H :    0.024595
  16 H :    0.018283
  17 H :    0.007612
  18 H :    0.043784

  Mayer bond orders larger than 0.1
B(  0-C ,  1-C ) :   1.0307 B(  0-C ,  5-C ) :   1.0386 B(  0-C ,  6-O ) :   0.9611
B(  0-C , 17-H ) :   0.9719 B(  1-C ,  2-C ) :   1.0345 B(  1-C , 13-H ) :   0.9597
B(  1-C , 14-H ) :   0.9683 B(  2-C ,  3-C ) :   1.0449 B(  2-C ,  7-H ) :   0.9731
B(  2-C ,  8-H ) :   0.9628 B(  3-C ,  4-C ) :   1.0445 B(  3-C ,  9-H ) :   0.9729
B(  3-C , 10-H ) :   0.9648 B(  4-C ,  5-C ) :   1.0389 B(  4-C , 11-H ) :   0.9632
B(  4-C , 12-H ) :   0.9724 B(  5-C , 15-H ) :   0.9668 B(  5-C , 16-H ) :   0.9638
B(  6-O , 18-H ) :   1.0005

E(0)                                       ...   -309.085373310
E(0)                                       ...   -309.085373310
E(CORR)(strong-pairs)                      ...     -1.115550940
E(CORR)(weak-pairs)                        ...     -0.000465011
E(CORR)(corrected)                         ...     -1.116015951
E(TOT)                                     ...   -310.201389261
E(CCSD(T))                                 ...   -310.234063681
FINAL SINGLE POINT ENERGY      -310.234063681342

DIPOLE MOMENT
-------------
                                X             Y             Z
Electronic contribution:      3.13185      -0.31698      -1.19357
Nuclear contribution   :     -3.06755       0.78471       1.56656
                        -----------------------------------------
Total Dipole Moment    :      0.06429       0.46772       0.37299
                        -----------------------------------------
Magnitude (a.u.)       :      0.60168
Magnitude (Debye)      :      1.52936

Rotational constants in cm-1:     0.118089     0.087122     0.065268
Rotational constants in MHz :  3540.223874  2611.839053  1956.687519

                             ****ORCA TERMINATED NORMALLY****
TOTAL RUN TIME: 0 days 0 hours 3 minutes 35 seconds 358 msec
