                         Program Version 4.1.x  -  STABLE  -
|  1> ! RHF DLPNO-CCSD(T) cc-pVDZ RIJK cc-pVTZ/JK cc-pVDZ/C
|  2> ! KDIIS SOSCF TightSCF TightPNO
|  3>
|  4> %pal nprocs 4 end
|  5>
|  6> %maxcore 8000
|  7>
|  8> %scf maxiter 300
|  9>      shift shift 0.2 erroff 0.1 end
| 10> end
| 11>
| 12> * xyzfile 0 1 hydroxycyclohexane_eq.xyz
| 13>
| 14>
| 15>                          ****END OF INPUT****

CARTESIAN COORDINATES (ANGSTROEM)
---------------------------------
  C      1.035070   -0.014080    0.320330
  C      0.319220   -1.270110   -0.174050
  C     -1.168670   -1.259220    0.214970
  C     -1.874210    0.014960   -0.277020
  C     -1.147370    1.279680    0.207960
  C      0.340140    1.256110   -0.185510
  O      2.394390   -0.097770   -0.128280
  H     -1.664370   -2.149820   -0.189260
  H     -1.260890   -1.323250    1.309040
  H     -2.917770    0.025670    0.060920
  H     -1.900340    0.012600   -1.376270
  H     -1.234230    1.349830    1.302060
  H     -1.627280    2.177780   -0.198970
  H      0.422500   -1.312990   -1.266930
  H      0.823550   -2.155770    0.228680
  H      0.852240    2.145260    0.208910
  H      0.440330    1.287870   -1.279160
  H      1.017820   -0.011590    1.424080
  H      2.868250    0.692520    0.163000

 Total Charge           Charge          ....    0
 Multiplicity           Mult            ....    1
 Number of Electrons    NEL             ....   56
 Basis Dimension        Dim             ....  158

ORBITAL ENERGIES
----------------

  NO   OCC          E(Eh)            E(eV)
   0   2.0000     -20.546203      -559.0906
   1   2.0000     -11.275195      -306.8137
   2   2.0000     -11.227424      -305.5137
   3   2.0000     -11.224621      -305.4375
   4   2.0000     -11.224040      -305.4216
   5   2.0000     -11.223912      -305.4182
   6   2.0000     -11.218004      -305.2574
   7   2.0000      -1.346271       -36.6339
   8   2.0000      -1.108816       -30.1724
   9   2.0000      -1.004888       -27.3444
  10   2.0000      -0.989666       -26.9302
  11   2.0000      -0.838894       -22.8275
  12   2.0000      -0.821165       -22.3450
  13   2.0000      -0.756209       -20.5775
  14   2.0000      -0.678424       -18.4608
  15   2.0000      -0.645911       -17.5761
  16   2.0000      -0.609855       -16.5950
  17   2.0000      -0.603731       -16.4284
  18   2.0000      -0.582535       -15.8516
  19   2.0000      -0.542734       -14.7686
  20   2.0000      -0.527546       -14.3552
  21   2.0000      -0.522780       -14.2256
  22   2.0000      -0.486846       -13.2478
  23   2.0000      -0.482807       -13.1378
  24   2.0000      -0.459339       -12.4992
  25   2.0000      -0.455655       -12.3990
  26   2.0000      -0.433115       -11.7857
  27   2.0000      -0.416775       -11.3410
  28   0.0000       0.177357         4.8261
  29   0.0000       0.189368         5.1530
  30   0.0000       0.199772         5.4361
  31   0.0000       0.217931         5.9302
  32   0.0000       0.240489         6.5440

MULLIKEN ATOMIC CHARGES
-----------------------
   0 C :    0.142532
   1 C :   -0.006592
   2 C :   -0.054442
   3 C :   -0.040305
   4 C :   -0.052788
   5 C :   -0.030410
   6 O :   -0.388502
   7 H :    0.027817
   8 H :    0.023803
   9 H :    0.024501
  10 H :    0.026281
  11 H :    0.024119
  12 H :    0.027399
  13 H :    0.031082
  14 H :    0.032799
  15 H :    0.013941
  16 H :    0.032298
  17 H :    0.006508
  18 H :    0.159959
Sum of atomic charges:    0.0000000

LOEWDIN ATOMIC CHARGES
----------------------
   0 C :    0.005790
   1 C :   -0.027120
   2 C :   -0.033205
   3 C :   -0.033158
   4 C :   -0.032805
   5 C :   -0.040247
   6 O :   -0.078573
   7 H :    0.021684
   8 H :    0.016121
   9 H :    0.020015
  10 H :    0.017311
  11 H :    0.016350
  12 H :    0.021268
  13 H :    0.020660
  14 H :    0.023796
  15 H :    0.014705
  16 H :    0.019880
  17 H :    0.003417
  18 H :    0.044109

  Mayer bond orders larger than 0.1
B(  0-C ,  1-C ) :   1.0301 B(  0-C ,  5-C ) :   1.0282 B(  0-C ,  6-O ) :   0.9772
B(  0-C , 17-H ) :   0.9572 B(  1-C ,  2-C ) :   1.0407 B(  1-C , 13-H ) :   0.9604
B(  1-C , 14-H ) :   0.9688 B(  2-C ,  3-C ) :   1.0407 B(  2-C ,  7-H ) :   0.9723
B(  2-C ,  8-H ) :   0.9637 B(  3-C ,  4-C ) :   1.0432 B(  3-C ,  9-H ) :   0.9724
B(  3-C , 10-H ) :   0.9650 B(  4-C ,  5-C ) :   1.0380 B(  4-C , 11-H ) :   0.9636
B(  4-C , 12-H ) :   0.9710 B(  5-C , 15-H ) :   0.9672 B(  5-C , 16-H ) :   0.9589
B(  6-O , 18-H ) :   1.0007

E(0)                                       ...   -309.085690431
E(0)                                       ...   -309.085690431
E(CORR)(strong-pairs)                      ...     -1.115086592
E(CORR)(weak-pairs)                        ...     -0.000478960
E(CORR)(corrected)                         ...     -1.115565552
E(TOT)                                     ...   -310.201255983
E(CCSD(T))                                 ...   -310.233906585
FINAL SINGLE POINT ENERGY      -310.233906584587

DIPOLE MOMENT
-------------
                                X             Y             Z
Electronic contribution:      4.02356      -0.29196      -0.09004
Nuclear contribution   :     -4.34969       0.77342       0.40331
                        -----------------------------------------
Total Dipole Moment    :     -0.32614       0.48146       0.31327
                        -----------------------------------------
Magnitude (a.u.)       :      0.66053
Magnitude (Debye)      :      1.67894

Rotational constants in cm-1:     0.142209     0.073758     0.053204
Rotational constants in MHz :  4263.316654  2211.196942  1595.012253

                             ****ORCA TERMINATED NORMALLY****
TOTAL RUN TIME: 0 days 0 hours 3 minutes 38 seconds 306 msec
