                         Program Version 4.1.x  -  STABLE  -
|  1> ! RHF DLPNO-CCSD(T) cc-pVDZ RIJK cc-pVTZ/JK cc-pVDZ/C
|  2> ! KDIIS SOSCF TightSCF TightPNO
|  3>
|  4> %pal nprocs 4 end
|  5>
|  6> %maxcore 8000
|  7>
|  8> %scf maxiter 300
|  9>      shift shift 0.2 erroff 0.1 end
| 10> end
| 11>
| 12> * xyzfile 0 1 isopropylcyclohexane_eq.xyz
| 13>
| 14>
| 15>                          ****END OF INPUT****

CARTESIAN COORDINATES (ANGSTROEM)
---------------------------------
  C     -0.297560   -0.000050    0.200580
  C      0.482050    1.261010   -0.233310
  C      1.941850    1.261290    0.250410
  C      2.692480    0.000030   -0.195660
  C      1.941890   -1.261300    0.250280
  C      0.482090   -1.261020   -0.233440
  C     -1.763000   -0.000040   -0.318150
  C     -2.543110   -1.254270    0.117300
  C     -2.543010    1.254330    0.117070
  H      2.453050    2.161220   -0.114200
  H      1.957040    1.318930    1.348890
  H      3.714110    0.000030    0.204710
  H      2.784990    0.000080   -1.291840
  H      1.957080   -1.319040    1.348760
  H      2.453110   -2.161180   -0.114410
  H      0.466830    1.323310   -1.332850
  H     -0.015570    2.163720    0.135590
  H     -0.015500   -2.163770    0.135400
  H      0.466870   -1.323220   -1.332990
  H     -0.344410   -0.000090    1.303630
  H     -1.717660   -0.000130   -1.419050
  H     -3.582430    1.197330   -0.225040
  H     -2.560760    1.343790    1.211250
  H     -2.117630    2.176690   -0.287680
  H     -3.582560   -1.197170   -0.224670
  H     -2.117910   -2.176720   -0.287440
  H     -2.560720   -1.343630    1.211480

 Total Charge           Charge          ....    0
 Multiplicity           Mult            ....    1
 Number of Electrons    NEL             ....   72
 Basis Dimension        Dim             ....  216

ORBITAL ENERGIES
----------------

  NO   OCC          E(Eh)            E(eV)
   0   2.0000     -11.226934      -305.5004
   1   2.0000     -11.223024      -305.3940
   2   2.0000     -11.218971      -305.2837
   3   2.0000     -11.218821      -305.2796
   4   2.0000     -11.217798      -305.2518
   5   2.0000     -11.217099      -305.2328
   6   2.0000     -11.217054      -305.2315
   7   2.0000     -11.215215      -305.1815
   8   2.0000     -11.215188      -305.1808
   9   2.0000      -1.119573       -30.4651
  10   2.0000      -1.062655       -28.9163
  11   2.0000      -0.997493       -27.1432
  12   2.0000      -0.978807       -26.6347
  13   2.0000      -0.922579       -25.1047
  14   2.0000      -0.840319       -22.8662
  15   2.0000      -0.824110       -22.4252
  16   2.0000      -0.764752       -20.8100
  17   2.0000      -0.745264       -20.2797
  18   2.0000      -0.646484       -17.5917
  19   2.0000      -0.616398       -16.7730
  20   2.0000      -0.593558       -16.1515
  21   2.0000      -0.592385       -16.1196
  22   2.0000      -0.579173       -15.7601
  23   2.0000      -0.567673       -15.4472
  24   2.0000      -0.556108       -15.1325
  25   2.0000      -0.528247       -14.3743
  26   2.0000      -0.521952       -14.2030
  27   2.0000      -0.495754       -13.4901
  28   2.0000      -0.485881       -13.2215
  29   2.0000      -0.477773       -13.0009
  30   2.0000      -0.476296       -12.9607
  31   2.0000      -0.468644       -12.7524
  32   2.0000      -0.454146       -12.3579
  33   2.0000      -0.441190       -12.0054
  34   2.0000      -0.413987       -11.2652
  35   2.0000      -0.412802       -11.2329
  36   0.0000       0.180699         4.9171
  37   0.0000       0.189739         5.1631
  38   0.0000       0.196121         5.3367
  39   0.0000       0.213555         5.8111
  40   0.0000       0.233640         6.3577

MULLIKEN ATOMIC CHARGES
-----------------------
   0 C :   -0.164275
   1 C :   -0.000236
   2 C :   -0.020739
   3 C :   -0.038924
   4 C :   -0.020747
   5 C :   -0.000212
   6 C :   -0.197755
   7 C :    0.015699
   8 C :    0.015685
   9 H :    0.021192
  10 H :    0.020921
  11 H :    0.021257
  12 H :    0.020692
  13 H :    0.020921
  14 H :    0.021192
  15 H :    0.018630
  16 H :    0.028741
  17 H :    0.028734
  18 H :    0.018632
  19 H :    0.009263
  20 H :    0.013284
  21 H :    0.026846
  22 H :    0.024174
  23 H :    0.033007
  24 H :    0.026842
  25 H :    0.033003
  26 H :    0.024175
Sum of atomic charges:   -0.0000000

LOEWDIN ATOMIC CHARGES
----------------------
   0 C :   -0.031990
   1 C :   -0.026889
   2 C :   -0.031401
   3 C :   -0.034420
   4 C :   -0.031401
   5 C :   -0.026887
   6 C :   -0.038180
   7 C :   -0.044415
   8 C :   -0.044418
   9 H :    0.018929
  10 H :    0.015800
  11 H :    0.018376
  12 H :    0.015300
  13 H :    0.015800
  14 H :    0.018928
  15 H :    0.014718
  16 H :    0.018131
  17 H :    0.018130
  18 H :    0.014720
  19 H :    0.011621
  20 H :    0.014836
  21 H :    0.020288
  22 H :    0.018527
  23 H :    0.018542
  24 H :    0.020288
  25 H :    0.018542
  26 H :    0.018527

  Mayer bond orders larger than 0.1
B(  0-C ,  1-C ) :   1.0242 B(  0-C ,  5-C ) :   1.0242 B(  0-C ,  6-C ) :   1.0138
B(  0-C , 19-H ) :   0.9412 B(  1-C ,  2-C ) :   1.0595 B(  1-C , 15-H ) :   0.9579
B(  1-C , 16-H ) :   0.9649 B(  2-C ,  3-C ) :   1.0458 B(  2-C ,  9-H ) :   0.9706
B(  2-C , 10-H ) :   0.9618 B(  3-C ,  4-C ) :   1.0458 B(  3-C , 11-H ) :   0.9726
B(  3-C , 12-H ) :   0.9637 B(  4-C ,  5-C ) :   1.0595 B(  4-C , 13-H ) :   0.9618
B(  4-C , 14-H ) :   0.9706 B(  5-C , 17-H ) :   0.9649 B(  5-C , 18-H ) :   0.9579
B(  6-C ,  7-C ) :   1.0546 B(  6-C ,  8-C ) :   1.0546 B(  6-C , 20-H ) :   0.9481
B(  7-C , 24-H ) :   0.9812 B(  7-C , 25-H ) :   0.9799 B(  7-C , 26-H ) :   0.9757
B(  8-C , 21-H ) :   0.9812 B(  8-C , 22-H ) :   0.9757 B(  8-C , 23-H ) :   0.9799

E(0)                                       ...   -351.330876398
E(0)                                       ...   -351.330876398
E(CORR)(strong-pairs)                      ...     -1.408049747
E(CORR)(weak-pairs)                        ...     -0.000892735
E(CORR)(corrected)                         ...     -1.408942482
E(TOT)                                     ...   -352.739818880
E(CCSD(T))                                 ...   -352.783485717
FINAL SINGLE POINT ENERGY      -352.783485717028

DIPOLE MOMENT
-------------
                                X             Y             Z
Electronic contribution:      2.54154      -0.00015      -0.30200
Nuclear contribution   :     -2.53006       0.00015       0.28870
                        -----------------------------------------
Total Dipole Moment    :      0.01148      -0.00000      -0.01329
                        -----------------------------------------
Magnitude (a.u.)       :      0.01757
Magnitude (Debye)      :      0.04465

Rotational constants in cm-1:     0.094978     0.034298     0.026913
Rotational constants in MHz :  2847.381200  1028.240961   806.835128

                             ****ORCA TERMINATED NORMALLY****
TOTAL RUN TIME: 0 days 0 hours 5 minutes 43 seconds 712 msec
