                         Program Version 4.1.x  -  STABLE  -
|  1> ! RHF DLPNO-CCSD(T) cc-pVDZ RIJK cc-pVTZ/JK cc-pVDZ/C
|  2> ! KDIIS SOSCF TightSCF TightPNO
|  3>
|  4> %pal nprocs 4 end
|  5>
|  6> %maxcore 8000
|  7>
|  8> %scf maxiter 300
|  9>      shift shift 0.2 erroff 0.1 end
| 10> end
| 11>
| 12> * xyzfile 0 1 isopropylcyclohexane_ax.xyz
| 13>
| 14>
| 15>                          ****END OF INPUT****

CARTESIAN COORDINATES (ANGSTROEM)
---------------------------------
  C     -0.327110   -0.000130    0.773230
  C      0.583700   -1.252510    0.760380
  C      1.563640   -1.271600   -0.426070
  C      2.426960    0.000070   -0.459140
  C      1.563500    1.271640   -0.425920
  C      0.583560    1.252340    0.760520
  C     -1.417730   -0.000050   -0.339440
  C     -2.307850   -1.254670   -0.273040
  C     -2.307460    1.254840   -0.273080
  H      2.204420   -2.160240   -0.363540
  H      1.008000   -1.360590   -1.369930
  H      3.074360    0.000150   -1.345140
  H      3.094560    0.000050    0.415380
  H      1.007880    1.360680   -1.369780
  H      2.204190    2.160350   -0.363290
  H      1.167890   -1.253320    1.692040
  H     -0.010200   -2.172090    0.778430
  H     -0.010460    2.171850    0.778620
  H      1.167720    1.253150    1.692190
  H     -0.873470   -0.000190    1.729810
  H     -0.923420   -0.000140   -1.320800
  H     -3.107810    1.198300   -1.019290
  H     -2.780760    1.347230    0.713300
  H     -1.750040    2.176340   -0.463380
  H     -3.108260   -1.197840   -1.019170
  H     -1.750760   -2.176350   -0.463430
  H     -2.781100   -1.346940    0.713380

 Total Charge           Charge          ....    0
 Multiplicity           Mult            ....    1
 Number of Electrons    NEL             ....   72
 Basis Dimension        Dim             ....  216

ORBITAL ENERGIES
----------------

  NO   OCC          E(Eh)            E(eV)
   0   2.0000     -11.226204      -305.4805
   1   2.0000     -11.223188      -305.3985
   2   2.0000     -11.219084      -305.2868
   3   2.0000     -11.218693      -305.2762
   4   2.0000     -11.218279      -305.2649
   5   2.0000     -11.217001      -305.2301
   6   2.0000     -11.216961      -305.2290
   7   2.0000     -11.215519      -305.1898
   8   2.0000     -11.215490      -305.1890
   9   2.0000      -1.119859       -30.4729
  10   2.0000      -1.058791       -28.8112
  11   2.0000      -0.996823       -27.1249
  12   2.0000      -0.980437       -26.6790
  13   2.0000      -0.922132       -25.0925
  14   2.0000      -0.838562       -22.8184
  15   2.0000      -0.823648       -22.4126
  16   2.0000      -0.787350       -21.4249
  17   2.0000      -0.713774       -19.4228
  18   2.0000      -0.651713       -17.7340
  19   2.0000      -0.623466       -16.9654
  20   2.0000      -0.599854       -16.3229
  21   2.0000      -0.598921       -16.2975
  22   2.0000      -0.583093       -15.8668
  23   2.0000      -0.542600       -14.7649
  24   2.0000      -0.541234       -14.7277
  25   2.0000      -0.529680       -14.4133
  26   2.0000      -0.522925       -14.2295
  27   2.0000      -0.517917       -14.0932
  28   2.0000      -0.500967       -13.6320
  29   2.0000      -0.477768       -13.0007
  30   2.0000      -0.471615       -12.8333
  31   2.0000      -0.464143       -12.6300
  32   2.0000      -0.455290       -12.3891
  33   2.0000      -0.424846       -11.5607
  34   2.0000      -0.418021       -11.3749
  35   2.0000      -0.412811       -11.2332
  36   0.0000       0.175564         4.7773
  37   0.0000       0.190843         5.1931
  38   0.0000       0.201620         5.4864
  39   0.0000       0.210345         5.7238
  40   0.0000       0.233253         6.3471

MULLIKEN ATOMIC CHARGES
-----------------------
   0 C :   -0.143749
   1 C :    0.013917
   2 C :   -0.040111
   3 C :   -0.038149
   4 C :   -0.040114
   5 C :    0.013899
   6 C :   -0.203220
   7 C :    0.016049
   8 C :    0.016036
   9 H :    0.022446
  10 H :    0.023334
  11 H :    0.020690
  12 H :    0.020990
  13 H :    0.023331
  14 H :    0.022446
  15 H :    0.020177
  16 H :    0.020918
  17 H :    0.020923
  18 H :    0.020174
  19 H :    0.006346
  20 H :    0.019144
  21 H :    0.026261
  22 H :    0.024134
  23 H :    0.031869
  24 H :    0.026262
  25 H :    0.031861
  26 H :    0.024135
Sum of atomic charges:    0.0000000

LOEWDIN ATOMIC CHARGES
----------------------
   0 C :   -0.029615
   1 C :   -0.025976
   2 C :   -0.033528
   3 C :   -0.032435
   4 C :   -0.033529
   5 C :   -0.025978
   6 C :   -0.041249
   7 C :   -0.043454
   8 C :   -0.043453
   9 H :    0.019257
  10 H :    0.014400
  11 H :    0.018006
  12 H :    0.015520
  13 H :    0.014400
  14 H :    0.019258
  15 H :    0.017560
  16 H :    0.015908
  17 H :    0.015912
  18 H :    0.017556
  19 H :    0.015604
  20 H :    0.012455
  21 H :    0.020135
  22 H :    0.018575
  23 H :    0.017979
  24 H :    0.020138
  25 H :    0.017978
  26 H :    0.018575

  Mayer bond orders larger than 0.1
B(  0-C ,  1-C ) :   1.0462 B(  0-C ,  5-C ) :   1.0462 B(  0-C ,  6-C ) :   0.9856
B(  0-C , 19-H ) :   0.9505 B(  1-C ,  2-C ) :   1.0368 B(  1-C , 15-H ) :   0.9641
B(  1-C , 16-H ) :   0.9699 B(  2-C ,  3-C ) :   1.0442 B(  2-C ,  9-H ) :   0.9725
B(  2-C , 10-H ) :   0.9652 B(  3-C ,  4-C ) :   1.0442 B(  3-C , 11-H ) :   0.9730
B(  3-C , 12-H ) :   0.9642 B(  4-C ,  5-C ) :   1.0368 B(  4-C , 13-H ) :   0.9652
B(  4-C , 14-H ) :   0.9726 B(  5-C , 17-H ) :   0.9699 B(  5-C , 18-H ) :   0.9641
B(  6-C ,  7-C ) :   1.0539 B(  6-C ,  8-C ) :   1.0539 B(  6-C , 20-H ) :   0.9481
B(  7-C , 24-H ) :   0.9815 B(  7-C , 25-H ) :   0.9800 B(  7-C , 26-H ) :   0.9764
B(  8-C , 21-H ) :   0.9815 B(  8-C , 22-H ) :   0.9764 B(  8-C , 23-H ) :   0.9800

E(0)                                       ...   -351.326984290
E(0)                                       ...   -351.326984290
E(CORR)(strong-pairs)                      ...     -1.409418324
E(CORR)(weak-pairs)                        ...     -0.000886235
E(CORR)(corrected)                         ...     -1.410304559
E(TOT)                                     ...   -352.737288850
E(CCSD(T))                                 ...   -352.781117177
FINAL SINGLE POINT ENERGY      -352.781117177373

DIPOLE MOMENT
-------------
                                X             Y             Z
Electronic contribution:      2.33922      -0.00043       0.60690
Nuclear contribution   :     -2.32139       0.00043      -0.62619
                        -----------------------------------------
Total Dipole Moment    :      0.01783       0.00000      -0.01928
                        -----------------------------------------
Magnitude (a.u.)       :      0.02626
Magnitude (Debye)      :      0.06676

Rotational constants in cm-1:     0.080748     0.040126     0.032179
Rotational constants in MHz :  2420.774963  1202.940635   964.689285

                             ****ORCA TERMINATED NORMALLY****
TOTAL RUN TIME: 0 days 0 hours 6 minutes 10 seconds 432 msec
