                         Program Version 4.1.x  -  STABLE  -
|  1> ! RHF DLPNO-CCSD(T) cc-pVDZ RIJK cc-pVTZ/JK cc-pVDZ/C
|  2> ! KDIIS SOSCF TightSCF TightPNO
|  3>
|  4> %pal nprocs 4 end
|  5>
|  6> %maxcore 8000
|  7>
|  8> %scf maxiter 300
|  9>      shift shift 0.2 erroff 0.1 end
| 10> end
| 11>
| 12> * xyzfile 0 1 Me3SiO_cycl_ax.xyz
| 13>
| 14>
| 15>                          ****END OF INPUT****

CARTESIAN COORDINATES (ANGSTROEM)
---------------------------------
  C      0.702770   -0.049030   -0.826860
  C      1.535860    1.241520   -0.773850
  C      2.447780    1.289940    0.462490
  C      3.346580    0.044970    0.544340
  C      2.514260   -1.247250    0.507670
  C      1.602670   -1.290880   -0.729150
  O     -0.230670   -0.060990    0.263600
  Si    -1.902540   -0.001000    0.128200
  C     -2.534060   -1.474510   -0.874040
  C     -2.531370   -0.071880    1.898320
  C     -2.444200    1.601880   -0.716080
  H      1.824340    1.347630    1.363340
  H      3.058440    2.200970    0.438450
  H      4.049780    0.048440   -0.302400
  H      3.956440    0.077150    1.455790
  H      3.171670   -2.125410    0.515670
  H      1.893260   -1.305430    1.410130
  H      0.863280    2.107030   -0.793970
  H      2.148540    1.290440   -1.685910
  H      2.217820   -1.340150   -1.639440
  H      0.974990   -2.189590   -0.717200
  H      0.158780   -0.081140   -1.783760
  H     -3.626200   -0.026680    1.932880
  H     -2.215650   -0.999640    2.387880
  H     -2.139710    0.765970    2.485470
  H     -3.537210    1.653640   -0.791980
  H     -2.106030    2.478550   -0.152200
  H     -2.042050    1.682600   -1.732850
  H     -3.627090   -1.448470   -0.961390
  H     -2.125560   -1.480260   -1.891460
  H     -2.258590   -2.422250   -0.397790

 Total Charge           Charge          ....    0
 Multiplicity           Mult            ....    1
 Number of Electrons    NEL             ....   96
 Basis Dimension        Dim             ....  258

ORBITAL ENERGIES
----------------

  NO   OCC          E(Eh)            E(eV)
   0   2.0000     -68.785658     -1871.7529
   1   2.0000     -20.530559      -558.6649
   2   2.0000     -11.281459      -306.9841
   3   2.0000     -11.219079      -305.2867
   4   2.0000     -11.218681      -305.2758
   5   2.0000     -11.216876      -305.2267
   6   2.0000     -11.215339      -305.1849
   7   2.0000     -11.214959      -305.1745
   8   2.0000     -11.205124      -304.9069
   9   2.0000     -11.205115      -304.9067
  10   2.0000     -11.201864      -304.8182
  11   2.0000      -6.129482      -166.7917
  12   2.0000      -4.236781      -115.2887
  13   2.0000      -4.235560      -115.2554
  14   2.0000      -4.235326      -115.2491
  15   2.0000      -1.329494       -36.1774
  16   2.0000      -1.098629       -29.8952
  17   2.0000      -0.998451       -27.1692
  18   2.0000      -0.989658       -26.9300
  19   2.0000      -0.958227       -26.0747
  20   2.0000      -0.921348       -25.0712
  21   2.0000      -0.920115       -25.0376
  22   2.0000      -0.829327       -22.5671
  23   2.0000      -0.821881       -22.3645
  24   2.0000      -0.745805       -20.2944
  25   2.0000      -0.681816       -18.5532
  26   2.0000      -0.644051       -17.5255
  27   2.0000      -0.612698       -16.6724
  28   2.0000      -0.606266       -16.4973
  29   2.0000      -0.584739       -15.9116
  30   2.0000      -0.565756       -15.3950
  31   2.0000      -0.559855       -15.2344
  32   2.0000      -0.555579       -15.1181
  33   2.0000      -0.545430       -14.8419
  34   2.0000      -0.541211       -14.7271
  35   2.0000      -0.531700       -14.4683
  36   2.0000      -0.531015       -14.4496
  37   2.0000      -0.525760       -14.3067
  38   2.0000      -0.519237       -14.1291
  39   2.0000      -0.511631       -13.9222
  40   2.0000      -0.487602       -13.2683
  41   2.0000      -0.476656       -12.9705
  42   2.0000      -0.462047       -12.5729
  43   2.0000      -0.449805       -12.2398
  44   2.0000      -0.426505       -11.6058
  45   2.0000      -0.424052       -11.5390
  46   2.0000      -0.412296       -11.2191
  47   2.0000      -0.394679       -10.7398
  48   0.0000       0.156361         4.2548
  49   0.0000       0.188318         5.1244
  50   0.0000       0.198026         5.3886
  51   0.0000       0.203073         5.5259
  52   0.0000       0.217938         5.9304

MULLIKEN ATOMIC CHARGES
-----------------------
   0 C :    0.119322
   1 C :    0.014059
   2 C :   -0.038054
   3 C :   -0.047495
   4 C :   -0.038701
   5 C :    0.016998
   6 O :   -0.661963
   7 Si:    0.922521
   8 C :   -0.324295
   9 C :   -0.295759
  10 C :   -0.324913
  11 H :    0.038912
  12 H :    0.019400
  13 H :    0.017659
  14 H :    0.022257
  15 H :    0.019343
  16 H :    0.039985
  17 H :    0.023313
  18 H :    0.017994
  19 H :    0.017366
  20 H :    0.023555
  21 H :    0.002747
  22 H :    0.041309
  23 H :    0.051027
  24 H :    0.051188
  25 H :    0.043405
  26 H :    0.049699
  27 H :    0.043042
  28 H :    0.043269
  29 H :    0.042983
  30 H :    0.049822
Sum of atomic charges:   -0.0000000

LOEWDIN ATOMIC CHARGES
----------------------
   0 C :    0.018778
   1 C :   -0.029663
   2 C :   -0.031104
   3 C :   -0.033369
   4 C :   -0.031124
   5 C :   -0.028682
   6 O :   -0.209672
   7 Si:    0.525109
   8 C :   -0.216965
   9 C :   -0.208127
  10 C :   -0.217253
  11 H :    0.021401
  12 H :    0.017839
  13 H :    0.013309
  14 H :    0.018952
  15 H :    0.017834
  16 H :    0.021844
  17 H :    0.019535
  18 H :    0.017533
  19 H :    0.017261
  20 H :    0.019845
  21 H :    0.006447
  22 H :    0.028522
  23 H :    0.032674
  24 H :    0.032807
  25 H :    0.030219
  26 H :    0.030313
  27 H :    0.027488
  28 H :    0.030263
  29 H :    0.027417
  30 H :    0.030571

  Mayer bond orders larger than 0.1
B(  0-C ,  1-C ) :   1.0419 B(  0-C ,  5-C ) :   1.0457 B(  0-C ,  6-O ) :   0.8807
B(  0-C , 21-H ) :   0.9672 B(  1-C ,  2-C ) :   1.0395 B(  1-C , 17-H ) :   0.9672
B(  1-C , 18-H ) :   0.9594 B(  2-C ,  3-C ) :   1.0451 B(  2-C , 11-H ) :   0.9628
B(  2-C , 12-H ) :   0.9727 B(  3-C ,  4-C ) :   1.0451 B(  3-C , 13-H ) :   0.9647
B(  3-C , 14-H ) :   0.9725 B(  4-C ,  5-C ) :   1.0396 B(  4-C , 15-H ) :   0.9726
B(  4-C , 16-H ) :   0.9627 B(  5-C , 19-H ) :   0.9590 B(  5-C , 20-H ) :   0.9672
B(  6-O ,  7-Si) :   0.9469 B(  7-Si,  8-C ) :   1.0007 B(  7-Si,  9-C ) :   1.0257
B(  7-Si, 10-C ) :   1.0000 B(  8-C , 28-H ) :   0.9696 B(  8-C , 29-H ) :   0.9705
B(  8-C , 30-H ) :   0.9732 B(  9-C , 22-H ) :   0.9663 B(  9-C , 23-H ) :   0.9713
B(  9-C , 24-H ) :   0.9712 B( 10-C , 25-H ) :   0.9697 B( 10-C , 26-H ) :   0.9733
B( 10-C , 27-H ) :   0.9704

E(0)                                       ...   -716.361640695
E(0)                                       ...   -716.361640695
E(CORR)(strong-pairs)                      ...     -1.699417264
E(CORR)(weak-pairs)                        ...     -0.001473064
E(CORR)(corrected)                         ...     -1.700890328
E(TOT)                                     ...   -718.062531022
E(CCSD(T))                                 ...   -718.112718733
FINAL SINGLE POINT ENERGY      -718.112718733398

DIPOLE MOMENT
-------------
                                X             Y             Z
Electronic contribution:     -0.93826      -0.22300       0.54381
Nuclear contribution   :      0.78575       0.24322      -0.90422
                        -----------------------------------------
Total Dipole Moment    :     -0.15252       0.02022      -0.36041
                        -----------------------------------------
Magnitude (a.u.)       :      0.39188
Magnitude (Debye)      :      0.99607

Rotational constants in cm-1:     0.053420     0.017839     0.016910
Rotational constants in MHz :  1601.499218   534.813775   506.958740

                             ****ORCA TERMINATED NORMALLY****
TOTAL RUN TIME: 0 days 0 hours 9 minutes 13 seconds 621 msec
