                         Program Version 4.1.x  -  STABLE  -
|  1> ! RHF DLPNO-CCSD(T) cc-pVDZ RIJK cc-pVTZ/JK cc-pVDZ/C
|  2> ! KDIIS SOSCF TightSCF TightPNO
|  3>
|  4> %pal nprocs 4 end
|  5>
|  6> %maxcore 8000
|  7>
|  8> %scf maxiter 300
|  9>      shift shift 0.2 erroff 0.1 end
| 10> end
| 11>
| 12> * xyzfile 0 1 Me3SiO_cycl_eq.xyz
| 13>
| 14>
| 15>                          ****END OF INPUT****

CARTESIAN COORDINATES (ANGSTROEM)
---------------------------------
  C      0.728610   -0.238140    0.103140
  C      1.291440    1.125060   -0.324930
  C      2.710250    1.352370    0.225650
  C      3.660670    0.210940   -0.168270
  C      3.094500   -1.154620    0.252140
  C      1.676570   -1.372060   -0.300470
  O     -0.544200   -0.490620   -0.491130
  Si    -2.069690   -0.005790    0.014280
  C     -2.486250    1.716760   -0.640800
  C     -3.243800   -1.274050   -0.728130
  C     -2.171810   -0.005660    1.902020
  H      2.668380    1.424720    1.322590
  H      3.098290    2.314010   -0.132020
  H      3.806420    0.221980   -1.258220
  H      4.648880    0.368340    0.281750
  H      3.754460   -1.962480   -0.086760
  H      3.072280   -1.213770    1.350480
  H      0.621540    1.926830    0.008810
  H      1.303840    1.158240   -1.423110
  H      1.702570   -1.417380   -1.397930
  H      1.263230   -2.326350    0.046490
  H      0.628680   -0.246480    1.201640
  H     -4.290090   -1.039300   -0.499010
  H     -3.136980   -1.305080   -1.818410
  H     -3.028600   -2.277730   -0.344940
  H     -3.189340    0.243720    2.227200
  H     -1.922920   -0.988420    2.319020
  H     -1.497610    0.731870    2.352920
  H     -3.527340    1.979330   -0.414610
  H     -1.847050    2.490200   -0.200000
  H     -2.360570    1.760170   -1.728820

 Total Charge           Charge          ....    0
 Multiplicity           Mult            ....    1
 Number of Electrons    NEL             ....   96
 Basis Dimension        Dim             ....  258

ORBITAL ENERGIES
----------------

  NO   OCC          E(Eh)            E(eV)
   0   2.0000     -68.785105     -1871.7379
   1   2.0000     -20.529121      -558.6258
   2   2.0000     -11.279763      -306.9380
   3   2.0000     -11.225191      -305.4530
   4   2.0000     -11.223099      -305.3960
   5   2.0000     -11.222474      -305.3791
   6   2.0000     -11.220484      -305.3249
   7   2.0000     -11.216299      -305.2110
   8   2.0000     -11.206086      -304.9331
   9   2.0000     -11.202465      -304.8346
  10   2.0000     -11.199780      -304.7615
  11   2.0000      -6.128717      -166.7709
  12   2.0000      -4.236057      -115.2690
  13   2.0000      -4.234806      -115.2349
  14   2.0000      -4.234588      -115.2290
  15   2.0000      -1.328737       -36.1568
  16   2.0000      -1.106268       -30.1031
  17   2.0000      -1.002466       -27.2785
  18   2.0000      -0.990166       -26.9438
  19   2.0000      -0.956904       -26.0387
  20   2.0000      -0.921279       -25.0693
  21   2.0000      -0.917606       -24.9693
  22   2.0000      -0.834767       -22.7152
  23   2.0000      -0.821448       -22.3527
  24   2.0000      -0.755259       -20.5516
  25   2.0000      -0.686643       -18.6845
  26   2.0000      -0.645712       -17.5707
  27   2.0000      -0.608953       -16.5705
  28   2.0000      -0.602785       -16.4026
  29   2.0000      -0.588700       -16.0193
  30   2.0000      -0.570311       -15.5190
  31   2.0000      -0.561979       -15.2922
  32   2.0000      -0.556246       -15.1362
  33   2.0000      -0.549793       -14.9606
  34   2.0000      -0.544619       -14.8198
  35   2.0000      -0.534149       -14.5349
  36   2.0000      -0.527258       -14.3474
  37   2.0000      -0.525517       -14.3000
  38   2.0000      -0.522432       -14.2161
  39   2.0000      -0.511211       -13.9108
  40   2.0000      -0.482144       -13.1198
  41   2.0000      -0.470202       -12.7949
  42   2.0000      -0.462667       -12.5898
  43   2.0000      -0.456476       -12.4213
  44   2.0000      -0.434078       -11.8119
  45   2.0000      -0.426311       -11.6005
  46   2.0000      -0.413889       -11.2625
  47   2.0000      -0.393965       -10.7203
  48   0.0000       0.160586         4.3698
  49   0.0000       0.183465         4.9923
  50   0.0000       0.193054         5.2533
  51   0.0000       0.204684         5.5697
  52   0.0000       0.220819         6.0088

MULLIKEN ATOMIC CHARGES
-----------------------
   0 C :    0.168813
   1 C :   -0.021371
   2 C :   -0.046898
   3 C :   -0.039768
   4 C :   -0.054400
   5 C :    0.011568
   6 O :   -0.672921
   7 Si:    0.923771
   8 C :   -0.320676
   9 C :   -0.293983
  10 C :   -0.332170
  11 H :    0.022617
  12 H :    0.026638
  13 H :    0.025604
  14 H :    0.023617
  15 H :    0.026565
  16 H :    0.022231
  17 H :    0.023106
  18 H :    0.031285
  19 H :    0.029143
  20 H :    0.024753
  21 H :    0.009364
  22 H :    0.039316
  23 H :    0.052013
  24 H :    0.048660
  25 H :    0.045261
  26 H :    0.049035
  27 H :    0.044515
  28 H :    0.040752
  29 H :    0.042897
  30 H :    0.050664
Sum of atomic charges:    0.0000000

LOEWDIN ATOMIC CHARGES
----------------------
   0 C :    0.015052
   1 C :   -0.033452
   2 C :   -0.032925
   3 C :   -0.033487
   4 C :   -0.034422
   5 C :   -0.026108
   6 O :   -0.201960
   7 Si:    0.527389
   8 C :   -0.216284
   9 C :   -0.208501
  10 C :   -0.218498
  11 H :    0.015775
  12 H :    0.021222
  13 H :    0.017146
  14 H :    0.019587
  15 H :    0.021268
  16 H :    0.015516
  17 H :    0.017509
  18 H :    0.020534
  19 H :    0.020130
  20 H :    0.020963
  21 H :    0.005271
  22 H :    0.027406
  23 H :    0.033469
  24 H :    0.031313
  25 H :    0.031627
  26 H :    0.030317
  27 H :    0.027105
  28 H :    0.029232
  29 H :    0.025772
  30 H :    0.032033

  Mayer bond orders larger than 0.1
B(  0-C ,  1-C ) :   1.0315 B(  0-C ,  5-C ) :   1.0448 B(  0-C ,  6-O ) :   0.8878
B(  0-C , 21-H ) :   0.9534 B(  1-C ,  2-C ) :   1.0429 B(  1-C , 17-H ) :   0.9661
B(  1-C , 18-H ) :   0.9593 B(  2-C ,  3-C ) :   1.0446 B(  2-C , 11-H ) :   0.9633
B(  2-C , 12-H ) :   0.9707 B(  3-C ,  4-C ) :   1.0414 B(  3-C , 13-H ) :   0.9645
B(  3-C , 14-H ) :   0.9723 B(  4-C ,  5-C ) :   1.0378 B(  4-C , 15-H ) :   0.9717
B(  4-C , 16-H ) :   0.9634 B(  5-C , 19-H ) :   0.9601 B(  5-C , 20-H ) :   0.9687
B(  6-O ,  7-Si) :   0.9542 B(  7-Si,  8-C ) :   0.9955 B(  7-Si,  9-C ) :   1.0245
B(  7-Si, 10-C ) :   1.0004 B(  8-C , 28-H ) :   0.9682 B(  8-C , 29-H ) :   0.9727
B(  8-C , 30-H ) :   0.9730 B(  9-C , 22-H ) :   0.9664 B(  9-C , 23-H ) :   0.9707
B(  9-C , 24-H ) :   0.9716 B( 10-C , 25-H ) :   0.9707 B( 10-C , 26-H ) :   0.9725
B( 10-C , 27-H ) :   0.9697

E(0)                                       ...   -716.361011556
E(0)                                       ...   -716.361011556
E(CORR)(strong-pairs)                      ...     -1.698700258
E(CORR)(weak-pairs)                        ...     -0.001331948
E(CORR)(corrected)                         ...     -1.700032205
E(TOT)                                     ...   -718.061043761
E(CCSD(T))                                 ...   -718.111172261
FINAL SINGLE POINT ENERGY      -718.111172261241

DIPOLE MOMENT
-------------
                                X             Y             Z
Electronic contribution:     -1.86658      -1.68753      -1.54032
Nuclear contribution   :      1.97213       1.91970       1.88142
                        -----------------------------------------
Total Dipole Moment    :      0.10555       0.23216       0.34110
                        -----------------------------------------
Magnitude (a.u.)       :      0.42590
Magnitude (Debye)      :      1.08256

Rotational constants in cm-1:     0.060032     0.015863     0.014652
Rotational constants in MHz :  1799.715380   475.553303   439.250270

                             ****ORCA TERMINATED NORMALLY****
TOTAL RUN TIME: 0 days 0 hours 8 minutes 33 seconds 879 msec
