                         Program Version 4.1.x  -  STABLE  -
|  1> ! RHF DLPNO-CCSD(T) cc-pVDZ RIJK cc-pVTZ/JK cc-pVDZ/C
|  2> ! KDIIS SOSCF TightSCF TightPNO
|  3>
|  4> %pal nprocs 4 end
|  5>
|  6> %maxcore 8000
|  7>
|  8> %scf maxiter 300
|  9>      shift shift 0.2 erroff 0.1 end
| 10> end
| 11>
| 12> * xyzfile 0 1 Me_acetate_Z.xyz
| 13>
| 14>
| 15>                          ****END OF INPUT****

CARTESIAN COORDINATES (ANGSTROEM)
---------------------------------
  C     -1.804670   -0.524770   -0.000040
  C     -0.461980    0.164350    0.000110
  O      0.561040   -0.721740    0.000020
  C      1.885020   -0.152610   -0.000030
  O     -0.299340    1.367970   -0.000020
  H      2.565530   -1.003480   -0.000240
  H      2.034450    0.463430   -0.890010
  H      2.034630    0.463140    0.890130
  H     -1.706150   -1.610660   -0.000400
  H     -2.366070   -0.202310    0.881620
  H     -2.366200   -0.201700   -0.881390

 Total Charge           Charge          ....    0
 Multiplicity           Mult            ....    1
 Number of Electrons    NEL             ....   40
 Basis Dimension        Dim             ....  100

ORBITAL ENERGIES
----------------

  NO   OCC          E(Eh)            E(eV)
   0   2.0000     -20.601441      -560.5937
   1   2.0000     -20.540896      -558.9462
   2   2.0000     -11.383563      -309.7625
   3   2.0000     -11.292201      -307.2764
   4   2.0000     -11.247358      -306.0562
   5   2.0000      -1.453231       -39.5444
   6   2.0000      -1.350918       -36.7603
   7   2.0000      -1.029812       -28.0226
   8   2.0000      -0.946661       -25.7599
   9   2.0000      -0.773295       -21.0424
  10   2.0000      -0.687242       -18.7008
  11   2.0000      -0.670321       -18.2404
  12   2.0000      -0.668293       -18.1852
  13   2.0000      -0.591113       -16.0850
  14   2.0000      -0.586114       -15.9490
  15   2.0000      -0.554555       -15.0902
  16   2.0000      -0.522820       -14.2267
  17   2.0000      -0.517288       -14.0761
  18   2.0000      -0.453534       -12.3413
  19   2.0000      -0.441055       -12.0017
  20   0.0000       0.179599         4.8871
  21   0.0000       0.190605         5.1866
  22   0.0000       0.203716         5.5434
  23   0.0000       0.246933         6.7194
  24   0.0000       0.262609         7.1460

MULLIKEN ATOMIC CHARGES
-----------------------
   0 C :   -0.012233
   1 C :    0.336421
   2 O :   -0.452372
   3 C :    0.169194
   4 O :   -0.394867
   5 H :    0.050289
   6 H :    0.049067
   7 H :    0.049057
   8 H :    0.061397
   9 H :    0.072019
  10 H :    0.072028
Sum of atomic charges:   -0.0000000

LOEWDIN ATOMIC CHARGES
----------------------
   0 C :   -0.054009
   1 C :   -0.030302
   2 O :   -0.022127
   3 C :    0.045968
   4 O :   -0.138367
   5 H :    0.024757
   6 H :    0.022197
   7 H :    0.022196
   8 H :    0.035329
   9 H :    0.047179
  10 H :    0.047181

  Mayer bond orders larger than 0.1
B(  0-C ,  1-C ) :   1.0278 B(  0-C ,  8-H ) :   0.9741 B(  0-C ,  9-H ) :   0.9660
B(  0-C , 10-H ) :   0.9660 B(  1-C ,  2-O ) :   1.1227 B(  1-C ,  4-O ) :   2.0276
B(  2-O ,  3-C ) :   0.8947 B(  3-C ,  5-H ) :   0.9915 B(  3-C ,  6-H ) :   0.9868
B(  3-C ,  7-H ) :   0.9868

E(0)                                       ...   -266.853865541
E(0)                                       ...   -266.853865541
E(CORR)(strong-pairs)                      ...     -0.819691113
E(CORR)(weak-pairs)                        ...     -0.000218143
E(CORR)(corrected)                         ...     -0.819909256
E(TOT)                                     ...   -267.673774797
E(CCSD(T))                                 ...   -267.697480699
FINAL SINGLE POINT ENERGY      -267.697480699035

DIPOLE MOMENT
-------------
                                X             Y             Z
Electronic contribution:     -0.10431       1.36583       0.00036
Nuclear contribution   :      0.20314      -2.11074      -0.00029
                        -----------------------------------------
Total Dipole Moment    :      0.09883      -0.74490       0.00007
                        -----------------------------------------
Magnitude (a.u.)       :      0.75143
Magnitude (Debye)      :      1.90999

Rotational constants in cm-1:     0.341827     0.136706     0.101368
Rotational constants in MHz : 10247.728336  4098.340891  3038.923998

                             ****ORCA TERMINATED NORMALLY****
TOTAL RUN TIME: 0 days 0 hours 1 minutes 1 seconds 880 msec
