                         Program Version 4.1.x  -  STABLE  -
|  1> ! RHF DLPNO-CCSD(T) cc-pVDZ RIJK cc-pVTZ/JK cc-pVDZ/C
|  2> ! KDIIS SOSCF TightSCF TightPNO
|  3>
|  4> %pal nprocs 4 end
|  5>
|  6> %maxcore 8000
|  7>
|  8> %scf maxiter 300
|  9>      shift shift 0.2 erroff 0.1 end
| 10> end
| 11>
| 12> * xyzfile 0 1 Me_acetate_E.xyz
| 13>
| 14>
| 15>                          ****END OF INPUT****

CARTESIAN COORDINATES (ANGSTROEM)
---------------------------------
  C      0.670920    1.348130   -0.000060
  C      0.604630   -0.166250   -0.000470
  O     -0.624570   -0.753430   -0.000510
  C     -1.825950    0.027280    0.000320
  O      1.583250   -0.876470    0.000410
  H     -2.641580   -0.696100    0.001710
  H     -1.899880    0.652780    0.895830
  H     -1.901860    0.651560   -0.895900
  H      0.178140    1.767100    0.883350
  H      1.719950    1.641090    0.000150
  H      0.178190    1.767780   -0.883180

 Total Charge           Charge          ....    0
 Multiplicity           Mult            ....    1
 Number of Electrons    NEL             ....   40
 Basis Dimension        Dim             ....  100

ORBITAL ENERGIES
----------------

  NO   OCC          E(Eh)            E(eV)
   0   2.0000     -20.598726      -560.5198
   1   2.0000     -20.536806      -558.8349
   2   2.0000     -11.384931      -309.7997
   3   2.0000     -11.308607      -307.7228
   4   2.0000     -11.258252      -306.3526
   5   2.0000      -1.448030       -39.4029
   6   2.0000      -1.352562       -36.8051
   7   2.0000      -1.021455       -27.7952
   8   2.0000      -0.976203       -26.5638
   9   2.0000      -0.778503       -21.1841
  10   2.0000      -0.691839       -18.8259
  11   2.0000      -0.676295       -18.4029
  12   2.0000      -0.670601       -18.2480
  13   2.0000      -0.594503       -16.1772
  14   2.0000      -0.590306       -16.0630
  15   2.0000      -0.574477       -15.6323
  16   2.0000      -0.540121       -14.6974
  17   2.0000      -0.516168       -14.0456
  18   2.0000      -0.444263       -12.0890
  19   2.0000      -0.435652       -11.8547
  20   0.0000       0.160182         4.3588
  21   0.0000       0.182591         4.9686
  22   0.0000       0.213377         5.8063
  23   0.0000       0.215696         5.8694
  24   0.0000       0.232513         6.3270

MULLIKEN ATOMIC CHARGES
-----------------------
   0 C :   -0.099166
   1 C :    0.375374
   2 O :   -0.441255
   3 C :    0.161673
   4 O :   -0.352286
   5 H :    0.070846
   6 H :    0.037642
   7 H :    0.037669
   8 H :    0.065229
   9 H :    0.079101
  10 H :    0.065174
Sum of atomic charges:   -0.0000000

LOEWDIN ATOMIC CHARGES
----------------------
   0 C :   -0.069743
   1 C :   -0.029852
   2 O :   -0.017056
   3 C :    0.034525
   4 O :   -0.108627
   5 H :    0.034040
   6 H :    0.015713
   7 H :    0.015727
   8 H :    0.039682
   9 H :    0.045938
  10 H :    0.039653

  Mayer bond orders larger than 0.1
B(  0-C ,  1-C ) :   1.0288 B(  0-C ,  8-H ) :   0.9649 B(  0-C ,  9-H ) :   0.9762
B(  0-C , 10-H ) :   0.9649 B(  1-C ,  2-O ) :   1.0940 B(  1-C ,  4-O ) :   2.1127
B(  2-O ,  3-C ) :   0.9212 B(  3-C ,  5-H ) :   0.9937 B(  3-C ,  6-H ) :   0.9823
B(  3-C ,  7-H ) :   0.9823

E(0)                                       ...   -266.839675870
E(0)                                       ...   -266.839675870
E(CORR)(strong-pairs)                      ...     -0.821234791
E(CORR)(weak-pairs)                        ...     -0.000221406
E(CORR)(corrected)                         ...     -0.821456197
E(TOT)                                     ...   -267.661132067
E(CCSD(T))                                 ...   -267.684989499
FINAL SINGLE POINT ENERGY      -267.684989498574

DIPOLE MOMENT
-------------
                                X             Y             Z
Electronic contribution:      3.13758      -4.36055      -0.00207
Nuclear contribution   :     -4.41325       5.83967       0.00200
                        -----------------------------------------
Total Dipole Moment    :     -1.27567       1.47912      -0.00007
                        -----------------------------------------
Magnitude (a.u.)       :      1.95323
Magnitude (Debye)      :      4.96473

Rotational constants in cm-1:     0.298102     0.144588     0.101090
Rotational constants in MHz :  8936.885905  4334.639824  3030.595676

                             ****ORCA TERMINATED NORMALLY****
TOTAL RUN TIME: 0 days 0 hours 0 minutes 43 seconds 137 msec
