                         Program Version 4.1.x  -  STABLE  -
|  1> ! RHF DLPNO-CCSD(T) cc-pVDZ RIJK cc-pVTZ/JK cc-pVDZ/C
|  2> ! KDIIS SOSCF TightSCF TightPNO
|  3>
|  4> %pal nprocs 4 end
|  5>
|  6> %maxcore 8000
|  7>
|  8> %scf maxiter 300
|  9>      shift shift 0.2 erroff 0.1 end
| 10> end
| 11>
| 12> * xyzfile 0 1 me_cyclohexanecarboxylate_eq.xyz
| 13>
| 14>
| 15>                          ****END OF INPUT****

CARTESIAN COORDINATES (ANGSTROEM)
---------------------------------
  C     -0.680750    1.176910    0.424550
  C     -0.052760   -0.030210   -0.318140
  C     -0.896260   -1.302140   -0.105530
  C     -2.357520   -1.081080   -0.525510
  C     -2.982750    0.121260    0.198640
  C     -2.141860    1.391860    0.000980
  C      1.374310   -0.228180    0.156120
  O      2.264540    0.368260   -0.673780
  C      3.647650    0.287070   -0.278650
  O      1.706890   -0.816980    1.166410
  H     -0.461050   -2.136020   -0.669600
  H     -0.846890   -1.581480    0.953880
  H     -2.939450   -1.989110   -0.326180
  H     -2.404500   -0.914070   -1.611680
  H     -3.054240   -0.101010    1.273120
  H     -4.007560    0.286750   -0.155650
  H     -0.015070    0.209910   -1.387980
  H     -2.570720    2.226060    0.569610
  H     -2.172100    1.687020   -1.057910
  H     -0.633020    0.986690    1.505110
  H     -0.091220    2.080650    0.229700
  H      4.201950    0.817940   -1.052290
  H      3.967340   -0.756200   -0.221490
  H      3.794650    0.759720    0.695590

 Total Charge           Charge          ....    0
 Multiplicity           Mult            ....    1
 Number of Electrons    NEL             ....   78
 Basis Dimension        Dim             ....  210

ORBITAL ENERGIES
----------------

  NO   OCC          E(Eh)            E(eV)
   0   2.0000     -20.598489      -560.5134
   1   2.0000     -20.540322      -558.9306
   2   2.0000     -11.375720      -309.5491
   3   2.0000     -11.290287      -307.2243
   4   2.0000     -11.244150      -305.9689
   5   2.0000     -11.234842      -305.7156
   6   2.0000     -11.229259      -305.5637
   7   2.0000     -11.227960      -305.5283
   8   2.0000     -11.226912      -305.4998
   9   2.0000     -11.225975      -305.4743
  10   2.0000      -1.449972       -39.4558
  11   2.0000      -1.348115       -36.6841
  12   2.0000      -1.125613       -30.6295
  13   2.0000      -1.032781       -28.1034
  14   2.0000      -1.008401       -27.4400
  15   2.0000      -0.964425       -26.2433
  16   2.0000      -0.858645       -23.3649
  17   2.0000      -0.838209       -22.8088
  18   2.0000      -0.775079       -21.0910
  19   2.0000      -0.749310       -20.3898
  20   2.0000      -0.696346       -18.9485
  21   2.0000      -0.667616       -18.1668
  22   2.0000      -0.660675       -17.9779
  23   2.0000      -0.634827       -17.2745
  24   2.0000      -0.604858       -16.4590
  25   2.0000      -0.601659       -16.3720
  26   2.0000      -0.598168       -16.2770
  27   2.0000      -0.555451       -15.1146
  28   2.0000      -0.544898       -14.8274
  29   2.0000      -0.531026       -14.4500
  30   2.0000      -0.519851       -14.1459
  31   2.0000      -0.506778       -13.7901
  32   2.0000      -0.491612       -13.3774
  33   2.0000      -0.487903       -13.2765
  34   2.0000      -0.462227       -12.5778
  35   2.0000      -0.455910       -12.4059
  36   2.0000      -0.450665       -12.2632
  37   2.0000      -0.433130       -11.7861
  38   2.0000      -0.420947       -11.4545
  39   0.0000       0.176670         4.8074
  40   0.0000       0.184092         5.0094
  41   0.0000       0.197139         5.3644
  42   0.0000       0.199475         5.4280
  43   0.0000       0.213518         5.8101

MULLIKEN ATOMIC CHARGES
-----------------------
   0 C :   -0.011495
   1 C :   -0.172841
   2 C :    0.010396
   3 C :   -0.038200
   4 C :   -0.041966
   5 C :   -0.033501
   6 C :    0.468939
   7 O :   -0.458565
   8 C :    0.171826
   9 O :   -0.395913
  10 H :    0.029791
  11 H :    0.048364
  12 H :    0.028357
  13 H :    0.023164
  14 H :    0.028242
  15 H :    0.025647
  16 H :    0.040058
  17 H :    0.028996
  18 H :    0.025474
  19 H :    0.041985
  20 H :    0.036560
  21 H :    0.049751
  22 H :    0.048083
  23 H :    0.046848
Sum of atomic charges:    0.0000000

LOEWDIN ATOMIC CHARGES
----------------------
   0 C :   -0.017508
   1 C :   -0.048120
   2 C :   -0.018777
   3 C :   -0.031642
   4 C :   -0.032743
   5 C :   -0.030822
   6 C :   -0.014603
   7 O :   -0.020024
   8 C :    0.045077
   9 O :   -0.136117
  10 H :    0.022074
  11 H :    0.025469
  12 H :    0.022272
  13 H :    0.016378
  14 H :    0.018169
  15 H :    0.020546
  16 H :    0.026959
  17 H :    0.022367
  18 H :    0.017519
  19 H :    0.023201
  20 H :    0.022669
  21 H :    0.024313
  22 H :    0.021917
  23 H :    0.021425

  Mayer bond orders larger than 0.1
B(  0-C ,  1-C ) :   1.0080 B(  0-C ,  5-C ) :   1.0546 B(  0-C , 19-H ) :   0.9606
B(  0-C , 20-H ) :   0.9675 B(  1-C ,  2-C ) :   1.0109 B(  1-C ,  6-C ) :   0.9931
B(  1-C , 16-H ) :   0.9471 B(  2-C ,  3-C ) :   1.0547 B(  2-C , 10-H ) :   0.9694
B(  2-C , 11-H ) :   0.9581 B(  3-C ,  4-C ) :   1.0445 B(  3-C , 12-H ) :   0.9720
B(  3-C , 13-H ) :   0.9618 B(  4-C ,  5-C ) :   1.0449 B(  4-C , 14-H ) :   0.9642
B(  4-C , 15-H ) :   0.9725 B(  5-C , 17-H ) :   0.9715 B(  5-C , 18-H ) :   0.9622
B(  6-C ,  7-O ) :   1.1199 B(  6-C ,  9-O ) :   2.0190 B(  7-O ,  8-C ) :   0.8985
B(  8-C , 21-H ) :   0.9914 B(  8-C , 22-H ) :   0.9863 B(  8-C , 23-H ) :   0.9863

E(0)                                       ...   -460.881362525
E(0)                                       ...   -460.881362525
E(CORR)(strong-pairs)                      ...     -1.572153565
E(CORR)(weak-pairs)                        ...     -0.001160931
E(CORR)(corrected)                         ...     -1.573314496
E(TOT)                                     ...   -462.454677020
E(CCSD(T))                                 ...   -462.503854053
FINAL SINGLE POINT ENERGY      -462.503854053008

DIPOLE MOMENT
-------------
                                X             Y             Z
Electronic contribution:      7.27561      -1.19578       0.72809
Nuclear contribution   :     -7.38564       1.61715      -1.28568
                        -----------------------------------------
Total Dipole Moment    :     -0.11003       0.42137      -0.55758
                        -----------------------------------------
Magnitude (a.u.)       :      0.70750
Magnitude (Debye)      :      1.79832

Rotational constants in cm-1:     0.101098     0.023864     0.021835
Rotational constants in MHz :  3030.845936   715.412028   654.609508

                             ****ORCA TERMINATED NORMALLY****
TOTAL RUN TIME: 0 days 0 hours 6 minutes 4 seconds 20 msec
