                         Program Version 4.1.x  -  STABLE  -
|  1> ! RHF DLPNO-CCSD(T) cc-pVDZ RIJK cc-pVTZ/JK cc-pVDZ/C
|  2> ! KDIIS SOSCF TightSCF TightPNO
|  3>
|  4> %pal nprocs 4 end
|  5>
|  6> %maxcore 8000
|  7>
|  8> %scf maxiter 300
|  9>      shift shift 0.2 erroff 0.1 end
| 10> end
| 11>
| 12> * xyzfile 0 1 me_cyclohexanecarboxylate_ax.xyz
| 13>
| 14>
| 15>                          ****END OF INPUT****

CARTESIAN COORDINATES (ANGSTROEM)
---------------------------------
  C      1.201600   -1.176770    0.843510
  C      0.102850   -0.108170    1.002820
  C      0.668420    1.313520    0.757750
  C      1.408530    1.420900   -0.584820
  C      2.519670    0.365360   -0.698020
  C      1.968270   -1.053340   -0.484720
  C     -1.112880   -0.411060    0.131850
  O     -2.068460    0.540780    0.267110
  C     -3.281710    0.327340   -0.478500
  O     -1.260810   -1.387690   -0.576360
  H     -0.135730    2.052230    0.822180
  H      1.372490    1.534060    1.571580
  H      1.825900    2.429440   -0.694130
  H      0.695140    1.289970   -1.411610
  H      3.291640    0.575910    0.057340
  H      3.012450    0.436620   -1.675460
  H     -0.280960   -0.139120    2.032600
  H      2.786700   -1.783520   -0.502630
  H      1.296260   -1.314330   -1.310960
  H      1.904860   -1.054690    1.678870
  H      0.764780   -2.176200    0.934150
  H     -3.922100    1.176310   -0.240070
  H     -3.755070   -0.610260   -0.176950
  H     -3.070760    0.292210   -1.550090

 Total Charge           Charge          ....    0
 Multiplicity           Mult            ....    1
 Number of Electrons    NEL             ....   78
 Basis Dimension        Dim             ....  210

ORBITAL ENERGIES
----------------

  NO   OCC          E(Eh)            E(eV)
   0   2.0000     -20.598839      -560.5229
   1   2.0000     -20.543295      -559.0115
   2   2.0000     -11.378098      -309.6138
   3   2.0000     -11.291731      -307.2636
   4   2.0000     -11.246982      -306.0459
   5   2.0000     -11.231686      -305.6297
   6   2.0000     -11.225521      -305.4620
   7   2.0000     -11.225033      -305.4487
   8   2.0000     -11.221669      -305.3571
   9   2.0000     -11.217315      -305.2387
  10   2.0000      -1.452148       -39.5150
  11   2.0000      -1.350255       -36.7423
  12   2.0000      -1.122202       -30.5367
  13   2.0000      -1.028802       -27.9951
  14   2.0000      -1.004190       -27.3254
  15   2.0000      -0.964281       -26.2394
  16   2.0000      -0.858232       -23.3537
  17   2.0000      -0.833138       -22.6708
  18   2.0000      -0.784151       -21.3378
  19   2.0000      -0.745102       -20.2752
  20   2.0000      -0.677267       -18.4294
  21   2.0000      -0.669148       -18.2084
  22   2.0000      -0.666276       -18.1303
  23   2.0000      -0.640990       -17.4422
  24   2.0000      -0.609859       -16.5951
  25   2.0000      -0.600908       -16.3515
  26   2.0000      -0.585122       -15.9220
  27   2.0000      -0.551268       -15.0008
  28   2.0000      -0.533227       -14.5098
  29   2.0000      -0.526760       -14.3339
  30   2.0000      -0.521400       -14.1880
  31   2.0000      -0.511778       -13.9262
  32   2.0000      -0.507668       -13.8143
  33   2.0000      -0.482773       -13.1369
  34   2.0000      -0.464691       -12.6449
  35   2.0000      -0.452067       -12.3014
  36   2.0000      -0.432115       -11.7584
  37   2.0000      -0.430265       -11.7081
  38   2.0000      -0.425830       -11.5874
  39   0.0000       0.164398         4.4735
  40   0.0000       0.187844         5.1115
  41   0.0000       0.195345         5.3156
  42   0.0000       0.209667         5.7053
  43   0.0000       0.227047         6.1783

MULLIKEN ATOMIC CHARGES
-----------------------
   0 C :    0.032773
   1 C :   -0.218073
   2 C :    0.002785
   3 C :   -0.047266
   4 C :   -0.042481
   5 C :   -0.048199
   6 C :    0.499839
   7 O :   -0.463341
   8 C :    0.173093
   9 O :   -0.392929
  10 H :    0.046224
  11 H :    0.028696
  12 H :    0.027080
  13 H :    0.028053
  14 H :    0.019776
  15 H :    0.024845
  16 H :    0.050564
  17 H :    0.023563
  18 H :    0.046636
  19 H :    0.022289
  20 H :    0.041606
  21 H :    0.049763
  22 H :    0.047817
  23 H :    0.046888
Sum of atomic charges:   -0.0000000

LOEWDIN ATOMIC CHARGES
----------------------
   0 C :   -0.018944
   1 C :   -0.051107
   2 C :   -0.019840
   3 C :   -0.034434
   4 C :   -0.033859
   5 C :   -0.032049
   6 C :   -0.017277
   7 O :   -0.019443
   8 C :    0.045430
   9 O :   -0.131066
  10 H :    0.023913
  11 H :    0.020797
  12 H :    0.021437
  13 H :    0.016906
  14 H :    0.014607
  15 H :    0.020140
  16 H :    0.038919
  17 H :    0.020476
  18 H :    0.022643
  19 H :    0.018760
  20 H :    0.026411
  21 H :    0.024423
  22 H :    0.021775
  23 H :    0.021382

  Mayer bond orders larger than 0.1
B(  0-C ,  1-C ) :   1.0423 B(  0-C ,  5-C ) :   1.0378 B(  0-C , 19-H ) :   0.9633
B(  0-C , 20-H ) :   0.9647 B(  1-C ,  2-C ) :   1.0326 B(  1-C ,  6-C ) :   0.9671
B(  1-C , 16-H ) :   0.9467 B(  2-C ,  3-C ) :   1.0391 B(  2-C , 10-H ) :   0.9665
B(  2-C , 11-H ) :   0.9628 B(  3-C ,  4-C ) :   1.0420 B(  3-C , 12-H ) :   0.9729
B(  3-C , 13-H ) :   0.9645 B(  4-C ,  5-C ) :   1.0427 B(  4-C , 14-H ) :   0.9646
B(  4-C , 15-H ) :   0.9729 B(  5-C , 17-H ) :   0.9721 B(  5-C , 18-H ) :   0.9639
B(  6-C ,  7-O ) :   1.1093 B(  6-C ,  9-O ) :   2.0078 B(  7-O ,  8-C ) :   0.8984
B(  8-C , 21-H ) :   0.9915 B(  8-C , 22-H ) :   0.9871 B(  8-C , 23-H ) :   0.9867

E(0)                                       ...   -460.880286238
E(0)                                       ...   -460.880286238
E(CORR)(strong-pairs)                      ...     -1.573294321
E(CORR)(weak-pairs)                        ...     -0.001034492
E(CORR)(corrected)                         ...     -1.574328813
E(TOT)                                     ...   -462.454615052
E(CCSD(T))                                 ...   -462.503923068
FINAL SINGLE POINT ENERGY      -462.503923068175

DIPOLE MOMENT
-------------
                                X             Y             Z
Electronic contribution:     -6.01217      -2.14887       0.79284
Nuclear contribution   :      5.90616       2.77662      -0.48425
                        -----------------------------------------
Total Dipole Moment    :     -0.10601       0.62775       0.30859
                        -----------------------------------------
Magnitude (a.u.)       :      0.70748
Magnitude (Debye)      :      1.79828

Rotational constants in cm-1:     0.078964     0.030276     0.026791
Rotational constants in MHz :  2367.273485   907.645451   803.165635

                             ****ORCA TERMINATED NORMALLY****
TOTAL RUN TIME: 0 days 0 hours 6 minutes 31 seconds 481 msec
