                         Program Version 4.1.x  -  STABLE  -
|  1> ! RHF DLPNO-CCSD(T) cc-pVDZ RIJK cc-pVTZ/JK cc-pVDZ/C
|  2> ! KDIIS SOSCF TightSCF TightPNO
|  3>
|  4> %pal nprocs 4 end
|  5>
|  6> %maxcore 8000
|  7>
|  8> %scf maxiter 300
|  9>      shift shift 0.2 erroff 0.1 end
| 10> end
| 11>
| 12> * xyzfile 0 1 Me_formate_E.xyz
| 13>
| 14>
| 15>                          ****END OF INPUT****

CARTESIAN COORDINATES (ANGSTROEM)
---------------------------------
  C      1.676370    0.117140    0.000020
  O      0.379390   -0.505890   -0.000020
  C     -0.688770    0.316770   -0.000010
  O     -1.821530   -0.087910    0.000020
  H     -0.420420    1.390350   -0.000040
  H      2.396540   -0.700120   -0.000740
  H      1.817420    0.728920   -0.896940
  H      1.817910    0.727730    0.897710

 Total Charge           Charge          ....    0
 Multiplicity           Mult            ....    1
 Number of Electrons    NEL             ....   32
 Basis Dimension        Dim             ....   76

ORBITAL ENERGIES
----------------

  NO   OCC          E(Eh)            E(eV)
   0   2.0000     -20.610240      -560.8331
   1   2.0000     -20.553571      -559.2911
   2   2.0000     -11.391363      -309.9747
   3   2.0000     -11.315063      -307.8985
   4   2.0000      -1.459269       -39.7087
   5   2.0000      -1.368049       -37.2265
   6   2.0000      -0.984070       -26.7779
   7   2.0000      -0.844653       -22.9842
   8   2.0000      -0.724296       -19.7091
   9   2.0000      -0.674856       -18.3638
  10   2.0000      -0.674538       -18.3551
  11   2.0000      -0.597861       -16.2686
  12   2.0000      -0.562986       -15.3196
  13   2.0000      -0.538854       -14.6630
  14   2.0000      -0.457298       -12.4437
  15   2.0000      -0.452137       -12.3033
  16   0.0000       0.162880         4.4322
  17   0.0000       0.171352         4.6627
  18   0.0000       0.221687         6.0324
  19   0.0000       0.238961         6.5025
  20   0.0000       0.261382         7.1126

MULLIKEN ATOMIC CHARGES
-----------------------
   0 C :    0.145277
   1 O :   -0.421046
   2 C :    0.434661
   3 O :   -0.340987
   4 H :    0.019747
   5 H :    0.070055
   6 H :    0.046137
   7 H :    0.046157
Sum of atomic charges:   -0.0000000

LOEWDIN ATOMIC CHARGES
----------------------
   0 C :    0.037384
   1 O :   -0.013813
   2 C :    0.001457
   3 O :   -0.090351
   4 H :   -0.007986
   5 H :    0.035443
   6 H :    0.018930
   7 H :    0.018937

  Mayer bond orders larger than 0.1
B(  0-C ,  1-O ) :   0.9158 B(  0-C ,  5-H ) :   0.9932 B(  0-C ,  6-H ) :   0.9838
B(  0-C ,  7-H ) :   0.9838 B(  1-O ,  2-C ) :   1.1140 B(  2-C ,  3-O ) :   2.1326
B(  2-C ,  4-H ) :   0.9573

E(0)                                       ...   -227.795147194
E(0)                                       ...   -227.795147194
E(CORR)(strong-pairs)                      ...     -0.666754779
E(CORR)(weak-pairs)                        ...     -0.000123987
E(CORR)(corrected)                         ...     -0.666878766
E(TOT)                                     ...   -228.462025960
E(CCSD(T))                                 ...   -228.481085688
FINAL SINGLE POINT ENERGY      -228.481085687893

DIPOLE MOMENT
-------------
                                X             Y             Z
Electronic contribution:     -4.00027      -1.23049      -0.00001
Nuclear contribution   :      5.59304       2.13918      -0.00002
                        -----------------------------------------
Total Dipole Moment    :      1.59276       0.90868      -0.00003
                        -----------------------------------------
Magnitude (a.u.)       :      1.83374
Magnitude (Debye)      :      4.66099

Rotational constants in cm-1:     1.583630     0.155256     0.145352
Rotational constants in MHz : 47476.043713  4654.452646  4357.539028

                             ****ORCA TERMINATED NORMALLY****
TOTAL RUN TIME: 0 days 0 hours 0 minutes 18 seconds 865 msec
