                         Program Version 4.1.x  -  STABLE  -
|  1> ! RHF DLPNO-CCSD(T) cc-pVDZ RIJK cc-pVTZ/JK cc-pVDZ/C
|  2> ! KDIIS SOSCF TightSCF TightPNO
|  3>
|  4> %pal nprocs 4 end
|  5>
|  6> %maxcore 8000
|  7>
|  8> %scf maxiter 300
|  9>      shift shift 0.2 erroff 0.1 end
| 10> end
| 11>
| 12> * xyzfile 0 1 Me_formate_Z.xyz
| 13>
| 14>
| 15>                          ****END OF INPUT****

CARTESIAN COORDINATES (ANGSTROEM)
---------------------------------
  C      1.376810   -0.402440   -0.000010
  O      0.477580    0.727830    0.000010
  C     -0.833110    0.436730   -0.000020
  O     -1.309720   -0.674510    0.000010
  H     -1.413130    1.370500    0.000020
  H      2.378650    0.024830   -0.000130
  H      1.214820   -1.013730    0.891020
  H      1.214600   -1.013880   -0.890880

 Total Charge           Charge          ....    0
 Multiplicity           Mult            ....    1
 Number of Electrons    NEL             ....   32
 Basis Dimension        Dim             ....   76

ORBITAL ENERGIES
----------------

  NO   OCC          E(Eh)            E(eV)
   0   2.0000     -20.610740      -560.8468
   1   2.0000     -20.555946      -559.3557
   2   2.0000     -11.389642      -309.9279
   3   2.0000     -11.299549      -307.4764
   4   2.0000      -1.461571       -39.7714
   5   2.0000      -1.363397       -37.0999
   6   2.0000      -0.987123       -26.8610
   7   2.0000      -0.816859       -22.2279
   8   2.0000      -0.731383       -19.9019
   9   2.0000      -0.673465       -18.3259
  10   2.0000      -0.668781       -18.1984
  11   2.0000      -0.591863       -16.1054
  12   2.0000      -0.549163       -14.9435
  13   2.0000      -0.532248       -14.4832
  14   2.0000      -0.461817       -12.5667
  15   2.0000      -0.456972       -12.4348
  16   0.0000       0.177019         4.8169
  17   0.0000       0.194924         5.3041
  18   0.0000       0.214741         5.8434
  19   0.0000       0.250804         6.8247
  20   0.0000       0.267306         7.2738

MULLIKEN ATOMIC CHARGES
-----------------------
   0 C :    0.165392
   1 O :   -0.440543
   2 C :    0.437578
   3 O :   -0.377633
   4 H :    0.054577
   5 H :    0.054874
   6 H :    0.052875
   7 H :    0.052880
Sum of atomic charges:   -0.0000000

LOEWDIN ATOMIC CHARGES
----------------------
   0 C :    0.049016
   1 O :   -0.017321
   2 C :    0.004157
   3 O :   -0.121304
   4 H :    0.011030
   5 H :    0.027098
   6 H :    0.023664
   7 H :    0.023661

  Mayer bond orders larger than 0.1
B(  0-C ,  1-O ) :   0.8851 B(  0-C ,  5-H ) :   0.9918 B(  0-C ,  6-H ) :   0.9870
B(  0-C ,  7-H ) :   0.9870 B(  1-O ,  2-C ) :   1.1617 B(  2-C ,  3-O ) :   2.0484
B(  2-C ,  4-H ) :   0.9682

E(0)                                       ...   -227.804641111
E(0)                                       ...   -227.804641111
E(CORR)(strong-pairs)                      ...     -0.666087149
E(CORR)(weak-pairs)                        ...     -0.000128937
E(CORR)(corrected)                         ...     -0.666216086
E(TOT)                                     ...   -228.470857198
E(CCSD(T))                                 ...   -228.489907962
FINAL SINGLE POINT ENERGY      -228.489907961862

DIPOLE MOMENT
-------------
                                X             Y             Z
Electronic contribution:     -2.72038       1.03486      -0.00007
Nuclear contribution   :      3.38443      -0.63193       0.00003
                        -----------------------------------------
Total Dipole Moment    :      0.66405       0.40293      -0.00004
                        -----------------------------------------
Magnitude (a.u.)       :      0.77674
Magnitude (Debye)      :      1.97431

Rotational constants in cm-1:     0.669790     0.225725     0.174419
Rotational constants in MHz : 20079.801568  6767.050928  5228.945540

                             ****ORCA TERMINATED NORMALLY****
TOTAL RUN TIME: 0 days 0 hours 0 minutes 20 seconds 69 msec
