                         Program Version 4.1.x  -  STABLE  -
|  1> ! RHF DLPNO-CCSD(T) cc-pVDZ RIJK cc-pVTZ/JK cc-pVDZ/C
|  2> ! KDIIS SOSCF TightSCF TightPNO
|  3>
|  4> %pal nprocs 4 end
|  5>
|  6> %maxcore 8000
|  7>
|  8> %scf maxiter 300
|  9>      shift shift 0.2 erroff 0.1 end
| 10> end
| 11>
| 12> * xyzfile 0 1 Me_NH2_ecl.xyz
| 13>
| 14>
| 15>                          ****END OF INPUT****

CARTESIAN COORDINATES (ANGSTROEM)
---------------------------------
  C      0.700250    0.000230   -0.016440
  N     -0.733030   -0.000210    0.131910
  H      1.014950   -0.891680   -0.604260
  H      1.020780    0.923300   -0.550560
  H      1.188860   -0.032370    0.984430
  H     -1.147470    0.810860   -0.326030
  H     -1.147400   -0.810000   -0.328360

 Total Charge           Charge          ....    0
 Multiplicity           Mult            ....    1
 Number of Electrons    NEL             ....   18
 Basis Dimension        Dim             ....   53

ORBITAL ENERGIES
----------------

  NO   OCC          E(Eh)            E(eV)
   0   2.0000     -15.532759      -422.6679
   1   2.0000     -11.250222      -306.1341
   2   2.0000      -1.167257       -31.7627
   3   2.0000      -0.881119       -23.9765
   4   2.0000      -0.654846       -17.8193
   5   2.0000      -0.595392       -16.2014
   6   2.0000      -0.554534       -15.0896
   7   2.0000      -0.504556       -13.7297
   8   2.0000      -0.377762       -10.2794
   9   0.0000       0.182384         4.9629
  10   0.0000       0.225671         6.1408
  11   0.0000       0.227996         6.2041
  12   0.0000       0.276543         7.5251
  13   0.0000       0.318504         8.6669

MULLIKEN ATOMIC CHARGES
-----------------------
   0 C :    0.040439
   1 N :   -0.310809
   2 H :    0.023831
   3 H :    0.025297
   4 H :    0.037339
   5 H :    0.091958
   6 H :    0.091945
Sum of atomic charges:   -0.0000000

LOEWDIN ATOMIC CHARGES
----------------------
   0 C :   -0.039451
   1 N :   -0.077925
   2 H :    0.012673
   3 H :    0.013727
   4 H :    0.015991
   5 H :    0.037468
   6 H :    0.037516

  Mayer bond orders larger than 0.1
B(  0-C ,  1-N ) :   1.0319 B(  0-C ,  2-H ) :   0.9907 B(  0-C ,  3-H ) :   0.9908
B(  0-C ,  4-H ) :   0.9836 B(  1-N ,  5-H ) :   0.9944 B(  1-N ,  6-H ) :   0.9947

E(0)                                       ...    -95.215358173
E(0)                                       ...    -95.215358173
E(CORR)(strong-pairs)                      ...     -0.357073305
E(CORR)(weak-pairs)                        ...     -0.000032168
E(CORR)(corrected)                         ...     -0.357105473
E(TOT)                                     ...    -95.572463646
E(CCSD(T))                                 ...    -95.580626187
FINAL SINGLE POINT ENERGY       -95.580626187354

DIPOLE MOMENT
-------------
                                X             Y             Z
Electronic contribution:     -0.96173       0.00231       0.32126
Nuclear contribution   :      1.00727       0.00011      -0.89688
                        -----------------------------------------
Total Dipole Moment    :      0.04554       0.00242      -0.57562
                        -----------------------------------------
Magnitude (a.u.)       :      0.57743
Magnitude (Debye)      :      1.46770

Rotational constants in cm-1:     3.339318     0.778712     0.746848
Rotational constants in MHz : 100110.244957 23345.199408 22389.945601

                             ****ORCA TERMINATED NORMALLY****
TOTAL RUN TIME: 0 days 0 hours 0 minutes 29 seconds 121 msec
