                         Program Version 4.1.x  -  STABLE  -
|  1> ! RHF DLPNO-CCSD(T) cc-pVDZ RIJK cc-pVTZ/JK cc-pVDZ/C
|  2> ! KDIIS SOSCF TightSCF TightPNO
|  3>
|  4> %pal nprocs 4 end
|  5>
|  6> %maxcore 8000
|  7>
|  8> %scf maxiter 300
|  9>      shift shift 0.2 erroff 0.1 end
| 10> end
| 11>
| 12> * xyzfile 0 1 Me_NH2_g.xyz
| 13>
| 14>
| 15>                          ****END OF INPUT****

CARTESIAN COORDINATES (ANGSTROEM)
---------------------------------
  C      0.699910    0.000000    0.015980
  N     -0.732110    0.000000   -0.131390
  H      0.958260   -0.000000    1.099010
  H      1.127380   -0.909660   -0.464140
  H      1.127380    0.909660   -0.464150
  H     -1.143870   -0.812250    0.326530
  H     -1.143870    0.812250    0.326540

 Total Charge           Charge          ....    0
 Multiplicity           Mult            ....    1
 Number of Electrons    NEL             ....   18
 Basis Dimension        Dim             ....   53

ORBITAL ENERGIES
----------------

  NO   OCC          E(Eh)            E(eV)
   0   2.0000     -15.533733      -422.6944
   1   2.0000     -11.250880      -306.1520
   2   2.0000      -1.168079       -31.7850
   3   2.0000      -0.881298       -23.9813
   4   2.0000      -0.653523       -17.7833
   5   2.0000      -0.595566       -16.2062
   6   2.0000      -0.556572       -15.1451
   7   2.0000      -0.507144       -13.8001
   8   2.0000      -0.377849       -10.2818
   9   0.0000       0.184053         5.0083
  10   0.0000       0.228634         6.2214
  11   0.0000       0.243515         6.6264
  12   0.0000       0.269621         7.3368
  13   0.0000       0.290688         7.9100

MULLIKEN ATOMIC CHARGES
-----------------------
   0 C :    0.039156
   1 N :   -0.309102
   2 H :    0.008919
   3 H :    0.040052
   4 H :    0.040053
   5 H :    0.090461
   6 H :    0.090462
Sum of atomic charges:   -0.0000000

LOEWDIN ATOMIC CHARGES
----------------------
   0 C :   -0.039999
   1 N :   -0.074225
   2 H :   -0.000363
   3 H :    0.021113
   4 H :    0.021114
   5 H :    0.036179
   6 H :    0.036181

  Mayer bond orders larger than 0.1
B(  0-C ,  1-N ) :   1.0384 B(  0-C ,  2-H ) :   0.9860 B(  0-C ,  3-H ) :   0.9866
B(  0-C ,  4-H ) :   0.9866 B(  1-N ,  5-H ) :   0.9902 B(  1-N ,  6-H ) :   0.9902

E(0)                                       ...    -95.219030592
E(0)                                       ...    -95.219030592
E(CORR)(strong-pairs)                      ...     -0.356818494
E(CORR)(weak-pairs)                        ...     -0.000031279
E(CORR)(corrected)                         ...     -0.356849774
E(TOT)                                     ...    -95.575880365
E(CCSD(T))                                 ...    -95.584056614
FINAL SINGLE POINT ENERGY       -95.584056614091

DIPOLE MOMENT
-------------
                                X             Y             Z
Electronic contribution:     -0.94318      -0.00000      -0.36787
Nuclear contribution   :      1.00246       0.00000       0.89584
                        -----------------------------------------
Total Dipole Moment    :      0.05928      -0.00000       0.52797
                        -----------------------------------------
Magnitude (a.u.)       :      0.53129
Magnitude (Debye)      :      1.35043

Rotational constants in cm-1:     3.332004     0.781161     0.748648
Rotational constants in MHz : 99890.962491 23418.615918 22443.902692

                             ****ORCA TERMINATED NORMALLY****
TOTAL RUN TIME: 0 days 0 hours 0 minutes 28 seconds 421 msec
