                         Program Version 4.1.x  -  STABLE  -
|  1> ! RHF DLPNO-CCSD(T) cc-pVDZ RIJK cc-pVTZ/JK cc-pVDZ/C
|  2> ! KDIIS SOSCF TightSCF TightPNO
|  3>
|  4> %pal nprocs 4 end
|  5>
|  6> %maxcore 8000
|  7>
|  8> %scf maxiter 300
|  9>      shift shift 0.2 erroff 0.1 end
| 10> end
| 11>
| 12> * xyzfile 0 1 Me_vinyl_sulfone_gauche.xyz
| 13>
| 14>
| 15>                          ****END OF INPUT****

CARTESIAN COORDINATES (ANGSTROEM)
---------------------------------
  C      2.318200    0.180880    0.062780
  C      1.211390    0.295530   -0.666420
  S     -0.380190   -0.193950    0.008400
  O     -0.161210   -0.744670    1.358110
  C     -1.270790    1.369800    0.190590
  O     -1.070510   -0.980490   -1.029750
  H     -2.256790    1.109310    0.581610
  H     -0.732920    2.005370    0.895280
  H     -1.365270    1.843050   -0.788200
  H      3.289110    0.429240   -0.355960
  H      2.274430   -0.178780    1.086950
  H      1.175400    0.619070   -1.702630

 Total Charge           Charge          ....    0
 Multiplicity           Mult            ....    1
 Number of Electrons    NEL             ....   56
 Basis Dimension        Dim             ....  118

ORBITAL ENERGIES
----------------

  NO   OCC          E(Eh)            E(eV)
   0   2.0000     -92.191524     -2508.6589
   1   2.0000     -20.540434      -558.9336
   2   2.0000     -20.536438      -558.8249
   3   2.0000     -11.289105      -307.1922
   4   2.0000     -11.287280      -307.1425
   5   2.0000     -11.285843      -307.1034
   6   2.0000      -9.166897      -249.4440
   7   2.0000      -6.851729      -186.4450
   8   2.0000      -6.850439      -186.4099
   9   2.0000      -6.850101      -186.4007
  10   2.0000      -1.435240       -39.0549
  11   2.0000      -1.323439       -36.0126
  12   2.0000      -1.099365       -29.9152
  13   2.0000      -1.036478       -28.2040
  14   2.0000      -0.893387       -24.3103
  15   2.0000      -0.783089       -21.3089
  16   2.0000      -0.703897       -19.1540
  17   2.0000      -0.665630       -18.1127
  18   2.0000      -0.655493       -17.8369
  19   2.0000      -0.636028       -17.3072
  20   2.0000      -0.605272       -16.4703
  21   2.0000      -0.591228       -16.0881
  22   2.0000      -0.569907       -15.5080
  23   2.0000      -0.483297       -13.1512
  24   2.0000      -0.480325       -13.0703
  25   2.0000      -0.455549       -12.3961
  26   2.0000      -0.431099       -11.7308
  27   2.0000      -0.420223       -11.4348
  28   0.0000       0.105917         2.8822
  29   0.0000       0.167089         4.5467
  30   0.0000       0.192888         5.2487
  31   0.0000       0.210284         5.7221
  32   0.0000       0.229416         6.2427

MULLIKEN ATOMIC CHARGES
-----------------------
   0 C :    0.066670
   1 C :   -0.330687
   2 S :    1.136355
   3 O :   -0.618789
   4 C :   -0.169124
   5 O :   -0.616158
   6 H :    0.102605
   7 H :    0.084704
   8 H :    0.081090
   9 H :    0.079302
  10 H :    0.102346
  11 H :    0.081686
Sum of atomic charges:   -0.0000000

LOEWDIN ATOMIC CHARGES
----------------------
   0 C :    0.024974
   1 C :   -0.184919
   2 S :    1.108116
   3 O :   -0.523490
   4 C :   -0.138132
   5 O :   -0.522235
   6 H :    0.045896
   7 H :    0.036980
   8 H :    0.036123
   9 H :    0.040162
  10 H :    0.044046
  11 H :    0.032478

  Mayer bond orders larger than 0.1
B(  0-C ,  1-C ) :   1.9466 B(  0-C ,  9-H ) :   0.9658 B(  0-C , 10-H ) :   0.9552
B(  1-C ,  2-S ) :   0.9227 B(  1-C , 11-H ) :   0.9599 B(  2-S ,  3-O ) :   1.6722
B(  2-S ,  4-C ) :   0.9350 B(  2-S ,  5-O ) :   1.6727 B(  4-C ,  6-H ) :   0.9668
B(  4-C ,  7-H ) :   0.9655 B(  4-C ,  8-H ) :   0.9659

E(0)                                       ...   -664.243467742
E(0)                                       ...   -664.243467742
E(CORR)(strong-pairs)                      ...     -0.967484453
E(CORR)(weak-pairs)                        ...     -0.000301130
E(CORR)(corrected)                         ...     -0.967785583
E(TOT)                                     ...   -665.211253325
E(CCSD(T))                                 ...   -665.242614181
FINAL SINGLE POINT ENERGY      -665.242614180727

DIPOLE MOMENT
-------------
                                X             Y             Z
Electronic contribution:     -1.47197      -3.88795       0.01858
Nuclear contribution   :      2.35463       5.75315      -0.27550
                        -----------------------------------------
Total Dipole Moment    :      0.88266       1.86520      -0.25693
                        -----------------------------------------
Magnitude (a.u.)       :      2.07944
Magnitude (Debye)      :      5.28553

Rotational constants in cm-1:     0.144701     0.080997     0.080727
Rotational constants in MHz :  4338.030671  2428.232917  2420.135398

                             ****ORCA TERMINATED NORMALLY****
TOTAL RUN TIME: 0 days 0 hours 1 minutes 28 seconds 49 msec
