                         Program Version 4.1.x  -  STABLE  -
|  1> ! RHF DLPNO-CCSD(T) cc-pVDZ RIJK cc-pVTZ/JK cc-pVDZ/C
|  2> ! KDIIS SOSCF TightSCF TightPNO
|  3>
|  4> %pal nprocs 4 end
|  5>
|  6> %maxcore 8000
|  7>
|  8> %scf maxiter 300
|  9>      shift shift 0.2 erroff 0.1 end
| 10> end
| 11>
| 12> * xyzfile 0 1 Me_vinyl_sulfone_s_trans.xyz
| 13>
| 14>
| 15>                          ****END OF INPUT****

CARTESIAN COORDINATES (ANGSTROEM)
---------------------------------
  C      2.127700   -1.043570    0.000000
  C      1.406100    0.073990    0.000000
  S     -0.396360    0.010880    0.000000
  O     -0.850040   -0.575690    1.274070
  C     -0.850040    1.760320    0.000000
  O     -0.850040   -0.575690   -1.274070
  H     -1.941560    1.778040    0.000000
  H     -0.465290    2.234990    0.904300
  H     -0.465290    2.234990   -0.904300
  H      3.212710   -1.001980    0.000000
  H      1.664870   -2.026220    0.000000
  H      1.834360    1.072700    0.000000

 Total Charge           Charge          ....    0
 Multiplicity           Mult            ....    1
 Number of Electrons    NEL             ....   56
 Basis Dimension        Dim             ....  118

ORBITAL ENERGIES
----------------

  NO   OCC          E(Eh)            E(eV)
   0   2.0000     -92.191480     -2508.6577
   1   2.0000     -20.535750      -558.8062
   2   2.0000     -20.535730      -558.8056
   3   2.0000     -11.290348      -307.2260
   4   2.0000     -11.287781      -307.1561
   5   2.0000     -11.286631      -307.1248
   6   2.0000      -9.166873      -249.4433
   7   2.0000      -6.851509      -186.4390
   8   2.0000      -6.850350      -186.4075
   9   2.0000      -6.850210      -186.4037
  10   2.0000      -1.433410       -39.0051
  11   2.0000      -1.319415       -35.9031
  12   2.0000      -1.098919       -29.9031
  13   2.0000      -1.040224       -28.3059
  14   2.0000      -0.892380       -24.2829
  15   2.0000      -0.785166       -21.3655
  16   2.0000      -0.705421       -19.1955
  17   2.0000      -0.667313       -18.1585
  18   2.0000      -0.646494       -17.5920
  19   2.0000      -0.636910       -17.3312
  20   2.0000      -0.596232       -16.2243
  21   2.0000      -0.594785       -16.1849
  22   2.0000      -0.581160       -15.8142
  23   2.0000      -0.492113       -13.3911
  24   2.0000      -0.474241       -12.9047
  25   2.0000      -0.455093       -12.3837
  26   2.0000      -0.430027       -11.7016
  27   2.0000      -0.407659       -11.0930
  28   0.0000       0.108094         2.9414
  29   0.0000       0.158452         4.3117
  30   0.0000       0.182257         4.9595
  31   0.0000       0.214106         5.8261
  32   0.0000       0.225128         6.1260

MULLIKEN ATOMIC CHARGES
-----------------------
   0 C :    0.064238
   1 C :   -0.299670
   2 S :    1.111240
   3 O :   -0.612437
   4 C :   -0.175089
   5 O :   -0.612437
   6 H :    0.105139
   7 H :    0.085711
   8 H :    0.085711
   9 H :    0.080608
  10 H :    0.092989
  11 H :    0.073998
Sum of atomic charges:   -0.0000000

LOEWDIN ATOMIC CHARGES
----------------------
   0 C :    0.027265
   1 C :   -0.180950
   2 S :    1.104197
   3 O :   -0.523102
   4 C :   -0.139485
   5 O :   -0.523102
   6 H :    0.047939
   7 H :    0.036965
   8 H :    0.036965
   9 H :    0.041416
  10 H :    0.043960
  11 H :    0.027930

  Mayer bond orders larger than 0.1
B(  0-C ,  1-C ) :   1.9746 B(  0-C ,  9-H ) :   0.9692 B(  0-C , 10-H ) :   0.9609
B(  1-C ,  2-S ) :   0.8947 B(  1-C , 11-H ) :   0.9576 B(  2-S ,  3-O ) :   1.6807
B(  2-S ,  4-C ) :   0.9408 B(  2-S ,  5-O ) :   1.6807 B(  4-C ,  6-H ) :   0.9671
B(  4-C ,  7-H ) :   0.9643 B(  4-C ,  8-H ) :   0.9643

E(0)                                       ...   -664.234224048
E(0)                                       ...   -664.234224048
E(CORR)(strong-pairs)                      ...     -0.968855932
E(CORR)(weak-pairs)                        ...     -0.000301482
E(CORR)(corrected)                         ...     -0.969157414
E(TOT)                                     ...   -665.203381462
E(CCSD(T))                                 ...   -665.234901662
FINAL SINGLE POINT ENERGY      -665.234901661987

DIPOLE MOMENT
-------------
                                X             Y             Z
Electronic contribution:     -2.39645      -2.80252      -0.00000
Nuclear contribution   :      3.79039       4.23510      -0.00000
                        -----------------------------------------
Total Dipole Moment    :      1.39394       1.43257      -0.00000
                        -----------------------------------------
Magnitude (a.u.)       :      1.99883
Magnitude (Debye)      :      5.08063

Rotational constants in cm-1:     0.147359     0.080736     0.078038
Rotational constants in MHz :  4417.708922  2420.404174  2339.512060

                             ****ORCA TERMINATED NORMALLY****
TOTAL RUN TIME: 0 days 0 hours 1 minutes 28 seconds 83 msec
