                         Program Version 4.1.x  -  STABLE  -
|  1> ! RHF DLPNO-CCSD(T) cc-pVDZ RIJK cc-pVTZ/JK cc-pVDZ/C
|  2> ! KDIIS SOSCF TightSCF TightPNO
|  3>
|  4> %pal nprocs 4 end
|  5>
|  6> %maxcore 8000
|  7>
|  8> %scf maxiter 300
|  9>      shift shift 0.2 erroff 0.1 end
| 10> end
| 11>
| 12> * xyzfile 0 1 me_vinyl_ether_s_cis.xyz
| 13>
| 14>
| 15>                          ****END OF INPUT****

CARTESIAN COORDINATES (ANGSTROEM)
---------------------------------
  C     -1.454520    0.570660    0.000000
  C     -0.745670   -0.566370    0.000000
  O      0.604920   -0.713680    0.000000
  C      1.387870    0.475360    0.000000
  H     -2.536230    0.509910    0.000000
  H     -1.009530    1.558240    0.000000
  H     -1.220450   -1.543120    0.000000
  H      2.429480    0.152650   -0.000020
  H      1.185630    1.076970   -0.895070
  H      1.185650    1.076950    0.895090

 Total Charge           Charge          ....    0
 Multiplicity           Mult            ....    1
 Number of Electrons    NEL             ....   32
 Basis Dimension        Dim             ....   86

ORBITAL ENERGIES
----------------

  NO   OCC          E(Eh)            E(eV)
   0   2.0000     -20.583268      -560.0992
   1   2.0000     -11.298474      -307.4471
   2   2.0000     -11.288259      -307.1691
   3   2.0000     -11.217579      -305.2459
   4   2.0000      -1.404928       -38.2300
   5   2.0000      -1.026322       -27.9276
   6   2.0000      -0.948735       -25.8164
   7   2.0000      -0.773511       -21.0483
   8   2.0000      -0.691598       -18.8193
   9   2.0000      -0.648687       -17.6517
  10   2.0000      -0.645513       -17.5653
  11   2.0000      -0.569862       -15.5067
  12   2.0000      -0.529409       -14.4059
  13   2.0000      -0.497855       -13.5473
  14   2.0000      -0.497380       -13.5344
  15   2.0000      -0.340656        -9.2697
  16   0.0000       0.191380         5.2077
  17   0.0000       0.195148         5.3103
  18   0.0000       0.215360         5.8602
  19   0.0000       0.241241         6.5645
  20   0.0000       0.262909         7.1541

MULLIKEN ATOMIC CHARGES
-----------------------
   0 C :   -0.176983
   1 C :    0.185997
   2 O :   -0.438623
   3 C :    0.164831
   4 H :    0.049809
   5 H :    0.043077
   6 H :    0.046096
   7 H :    0.053880
   8 H :    0.035958
   9 H :    0.035958
Sum of atomic charges:   -0.0000000

LOEWDIN ATOMIC CHARGES
----------------------
   0 C :   -0.147760
   1 C :    0.007346
   2 O :   -0.018868
   3 C :    0.031037
   4 H :    0.026889
   5 H :    0.017413
   6 H :    0.027640
   7 H :    0.026204
   8 H :    0.015049
   9 H :    0.015049

  Mayer bond orders larger than 0.1
B(  0-C ,  1-C ) :   1.9313 B(  0-C ,  4-H ) :   0.9712 B(  0-C ,  5-H ) :   0.9728
B(  1-C ,  2-O ) :   1.0817 B(  1-C ,  6-H ) :   0.9883 B(  2-O ,  3-C ) :   0.9375
B(  3-C ,  7-H ) :   0.9937 B(  3-C ,  8-H ) :   0.9800 B(  3-C ,  9-H ) :   0.9800

E(0)                                       ...   -191.931297005
E(0)                                       ...   -191.931297005
E(CORR)(strong-pairs)                      ...     -0.641022435
E(CORR)(weak-pairs)                        ...     -0.000134647
E(CORR)(corrected)                         ...     -0.641157082
E(TOT)                                     ...   -192.572454087
E(CCSD(T))                                 ...   -192.591393343
FINAL SINGLE POINT ENERGY      -192.591393343477

DIPOLE MOMENT
-------------
                                X             Y             Z
Electronic contribution:      0.08759      -2.54724      -0.00000
Nuclear contribution   :      0.04562       2.91835       0.00000
                        -----------------------------------------
Total Dipole Moment    :      0.13321       0.37111      -0.00000
                        -----------------------------------------
Magnitude (a.u.)       :      0.39430
Magnitude (Debye)      :      1.00222

Rotational constants in cm-1:     0.612808     0.209255     0.160796
Rotational constants in MHz : 18371.534182  6273.302461  4820.534918

                             ****ORCA TERMINATED NORMALLY****
TOTAL RUN TIME: 0 days 0 hours 0 minutes 41 seconds 315 msec
