                         Program Version 4.1.x  -  STABLE  -
|  1> ! RHF DLPNO-CCSD(T) cc-pVDZ RIJK cc-pVTZ/JK cc-pVDZ/C
|  2> ! KDIIS SOSCF TightSCF TightPNO
|  3>
|  4> %pal nprocs 4 end
|  5>
|  6> %maxcore 8000
|  7>
|  8> %scf maxiter 300
|  9>      shift shift 0.2 erroff 0.1 end
| 10> end
| 11>
| 12> * xyzfile 0 1 me_vinyl_ether_g.xyz
| 13>
| 14>
| 15>                          ****END OF INPUT****

CARTESIAN COORDINATES (ANGSTROEM)
---------------------------------
  C     -1.880300   -0.073640    0.030000
  C     -0.616390    0.354090   -0.027660
  O      0.445520   -0.500920   -0.052600
  C      1.730040    0.108340    0.035140
  H     -2.690290    0.645240    0.026610
  H     -2.120220   -1.130490    0.074350
  H     -0.362730    1.413780   -0.071430
  H      2.461360   -0.695930   -0.055770
  H      1.883250    0.829360   -0.778610
  H      1.864360    0.612690    1.000790

 Total Charge           Charge          ....    0
 Multiplicity           Mult            ....    1
 Number of Electrons    NEL             ....   32
 Basis Dimension        Dim             ....   86

ORBITAL ENERGIES
----------------

  NO   OCC          E(Eh)            E(eV)
   0   2.0000     -20.577056      -559.9302
   1   2.0000     -11.294575      -307.3410
   2   2.0000     -11.291843      -307.2667
   3   2.0000     -11.214302      -305.1567
   4   2.0000      -1.400173       -38.1006
   5   2.0000      -1.031781       -28.0762
   6   2.0000      -0.928703       -25.2713
   7   2.0000      -0.789325       -21.4786
   8   2.0000      -0.681038       -18.5320
   9   2.0000      -0.645271       -17.5587
  10   2.0000      -0.643895       -17.5213
  11   2.0000      -0.557748       -15.1771
  12   2.0000      -0.544538       -14.8176
  13   2.0000      -0.501280       -13.6405
  14   2.0000      -0.490806       -13.3555
  15   2.0000      -0.333989        -9.0883
  16   0.0000       0.182307         4.9608
  17   0.0000       0.187200         5.0940
  18   0.0000       0.217539         5.9195
  19   0.0000       0.242411         6.5963
  20   0.0000       0.256486         6.9794

MULLIKEN ATOMIC CHARGES
-----------------------
   0 C :   -0.104639
   1 C :    0.140751
   2 O :   -0.435199
   3 C :    0.158256
   4 H :    0.046778
   5 H :    0.052388
   6 H :    0.027575
   7 H :    0.053176
   8 H :    0.029731
   9 H :    0.031183
Sum of atomic charges:   -0.0000000

LOEWDIN ATOMIC CHARGES
----------------------
   0 C :   -0.111431
   1 C :   -0.003994
   2 O :   -0.029150
   3 C :    0.026956
   4 H :    0.025125
   5 H :    0.025104
   6 H :    0.013935
   7 H :    0.027673
   8 H :    0.012667
   9 H :    0.013115

  Mayer bond orders larger than 0.1
B(  0-C ,  1-C ) :   1.9929 B(  0-C ,  4-H ) :   0.9672 B(  0-C ,  5-H ) :   0.9617
B(  1-C ,  2-O ) :   1.0321 B(  1-C ,  6-H ) :   0.9661 B(  2-O ,  3-C ) :   0.9537
B(  3-C ,  7-H ) :   0.9941 B(  3-C ,  8-H ) :   0.9817 B(  3-C ,  9-H ) :   0.9823

E(0)                                       ...   -191.928184234
E(0)                                       ...   -191.928184234
E(CORR)(strong-pairs)                      ...     -0.640057968
E(CORR)(weak-pairs)                        ...     -0.000129734
E(CORR)(corrected)                         ...     -0.640187702
E(TOT)                                     ...   -192.568371936
E(CCSD(T))                                 ...   -192.587097061
FINAL SINGLE POINT ENERGY      -192.587097060982

DIPOLE MOMENT
-------------
                                X             Y             Z
Electronic contribution:     -0.57756      -1.15002      -0.16710
Nuclear contribution   :      1.07899       1.72467       0.20189
                        -----------------------------------------
Total Dipole Moment    :      0.50143       0.57465       0.03479
                        -----------------------------------------
Magnitude (a.u.)       :      0.76346
Magnitude (Debye)      :      1.94056

Rotational constants in cm-1:     1.331341     0.149177     0.137901
Rotational constants in MHz : 39912.606242  4472.204879  4134.168755

                             ****ORCA TERMINATED NORMALLY****
TOTAL RUN TIME: 0 days 0 hours 0 minutes 46 seconds 295 msec
