                         Program Version 4.1.x  -  STABLE  -
|  1> ! RHF DLPNO-CCSD(T) cc-pVDZ RIJK cc-pVTZ/JK cc-pVDZ/C
|  2> ! KDIIS SOSCF TightSCF TightPNO
|  3>
|  4> %pal nprocs 4 end
|  5>
|  6> %maxcore 8000
|  7>
|  8> %scf maxiter 300
|  9>      shift shift 0.2 erroff 0.1 end
| 10> end
| 11>
| 12> * xyzfile 0 1 MeEt_sulfone_g.xyz
| 13>
| 14>
| 15>                          ****END OF INPUT****

CARTESIAN COORDINATES (ANGSTROEM)
---------------------------------
  C     -2.297330    0.177710    0.049220
  C     -1.134100   -0.535450   -0.633390
  S      0.503250   -0.155070    0.075980
  O      1.494460   -0.954180   -0.669140
  C      0.795320    1.585960   -0.327170
  O      0.406250   -0.262880    1.544500
  H     -3.241050   -0.185100   -0.370210
  H     -2.297720   -0.021230    1.123630
  H     -2.263010    1.260800   -0.104550
  H     -1.194600   -1.622130   -0.515520
  H     -1.059420   -0.316910   -1.702900
  H      1.786080    1.814410    0.070540
  H      0.785980    1.710940   -1.411160
  H      0.042730    2.207450    0.159640

 Total Charge           Charge          ....    0
 Multiplicity           Mult            ....    1
 Number of Electrons    NEL             ....   58
 Basis Dimension        Dim             ....  128

ORBITAL ENERGIES
----------------

  NO   OCC          E(Eh)            E(eV)
   0   2.0000     -92.183710     -2508.4463
   1   2.0000     -20.535367      -558.7957
   2   2.0000     -20.534098      -558.7612
   3   2.0000     -11.288443      -307.1742
   4   2.0000     -11.285331      -307.0895
   5   2.0000     -11.257791      -306.3401
   6   2.0000      -9.160037      -249.2573
   7   2.0000      -6.844721      -186.2543
   8   2.0000      -6.843339      -186.2167
   9   2.0000      -6.843140      -186.2113
  10   2.0000      -1.430758       -38.9329
  11   2.0000      -1.318844       -35.8876
  12   2.0000      -1.089878       -29.6571
  13   2.0000      -1.029619       -28.0174
  14   2.0000      -0.918026       -24.9808
  15   2.0000      -0.803686       -21.8694
  16   2.0000      -0.683173       -18.5901
  17   2.0000      -0.674039       -18.3415
  18   2.0000      -0.647382       -17.6161
  19   2.0000      -0.632206       -17.2032
  20   2.0000      -0.597518       -16.2593
  21   2.0000      -0.594682       -16.1821
  22   2.0000      -0.575660       -15.6645
  23   2.0000      -0.549035       -14.9400
  24   2.0000      -0.531391       -14.4599
  25   2.0000      -0.477369       -12.9899
  26   2.0000      -0.472914       -12.8686
  27   2.0000      -0.449252       -12.2248
  28   2.0000      -0.419566       -11.4170
  29   0.0000       0.151623         4.1259
  30   0.0000       0.194796         5.3007
  31   0.0000       0.196618         5.3502
  32   0.0000       0.208380         5.6703
  33   0.0000       0.236542         6.4366

MULLIKEN ATOMIC CHARGES
-----------------------
   0 C :   -0.059202
   1 C :   -0.227180
   2 S :    1.085975
   3 O :   -0.624355
   4 C :   -0.176565
   5 O :   -0.621376
   6 H :    0.054524
   7 H :    0.079049
   8 H :    0.042192
   9 H :    0.099631
  10 H :    0.077225
  11 H :    0.105490
  12 H :    0.081574
  13 H :    0.083018
Sum of atomic charges:    0.0000000

LOEWDIN ATOMIC CHARGES
----------------------
   0 C :   -0.059692
   1 C :   -0.130516
   2 S :    1.102477
   3 O :   -0.529048
   4 C :   -0.142401
   5 O :   -0.530153
   6 H :    0.035742
   7 H :    0.038352
   8 H :    0.023638
   9 H :    0.042799
  10 H :    0.031676
  11 H :    0.047265
  12 H :    0.035462
  13 H :    0.034399

  Mayer bond orders larger than 0.1
B(  0-C ,  1-C ) :   1.0313 B(  0-C ,  6-H ) :   0.9755 B(  0-C ,  7-H ) :   0.9744
B(  0-C ,  8-H ) :   0.9802 B(  1-C ,  2-S ) :   0.9170 B(  1-C ,  9-H ) :   0.9564
B(  1-C , 10-H ) :   0.9576 B(  2-S ,  3-O ) :   1.6649 B(  2-S ,  4-C ) :   0.9259
B(  2-S ,  5-O ) :   1.6611 B(  4-C , 11-H ) :   0.9675 B(  4-C , 12-H ) :   0.9654
B(  4-C , 13-H ) :   0.9642

E(0)                                       ...   -665.439127297
E(0)                                       ...   -665.439127297
E(CORR)(strong-pairs)                      ...     -1.002054680
E(CORR)(weak-pairs)                        ...     -0.000335026
E(CORR)(corrected)                         ...     -1.002389706
E(TOT)                                     ...   -666.441517003
E(CCSD(T))                                 ...   -666.471494048
FINAL SINGLE POINT ENERGY      -666.471494048335

DIPOLE MOMENT
-------------
                                X             Y             Z
Electronic contribution:      6.09908      -3.59513       1.78966
Nuclear contribution   :     -7.47967       4.86839      -2.75866
                        -----------------------------------------
Total Dipole Moment    :     -1.38059       1.27326      -0.96899
                        -----------------------------------------
Magnitude (a.u.)       :      2.11333
Magnitude (Debye)      :      5.37167

Rotational constants in cm-1:     0.136103     0.077234     0.074652
Rotational constants in MHz :  4080.255701  2315.415915  2237.997742

                             ****ORCA TERMINATED NORMALLY****
TOTAL RUN TIME: 0 days 0 hours 1 minutes 34 seconds 673 msec
