                         Program Version 4.1.x  -  STABLE  -
|  1> ! RHF DLPNO-CCSD(T) cc-pVDZ RIJK cc-pVTZ/JK cc-pVDZ/C
|  2> ! KDIIS SOSCF TightSCF TightPNO
|  3>
|  4> %pal nprocs 4 end
|  5>
|  6> %maxcore 8000
|  7>
|  8> %scf maxiter 300
|  9>      shift shift 0.2 erroff 0.1 end
| 10> end
| 11>
| 12> * xyzfile 0 1 MeEt_sulfone_a.xyz
| 13>
| 14>
| 15>                          ****END OF INPUT****

CARTESIAN COORDINATES (ANGSTROEM)
---------------------------------
  C      1.942350   -1.317420    0.000000
  C      1.386780    0.106170    0.000000
  S     -0.438410    0.084990    0.000000
  O     -0.891190   -0.494990    1.279470
  C     -0.891190    1.837560    0.000000
  O     -0.891190   -0.494990   -1.279470
  H      3.035780   -1.277390    0.000000
  H      1.615700   -1.864070    0.888160
  H      1.615700   -1.864070   -0.888160
  H      1.685370    0.662560    0.893580
  H      1.685370    0.662560   -0.893580
  H     -1.982870    1.859230    0.000000
  H     -0.504520    2.311690    0.903610
  H     -0.504520    2.311690   -0.903610

 Total Charge           Charge          ....    0
 Multiplicity           Mult            ....    1
 Number of Electrons    NEL             ....   58
 Basis Dimension        Dim             ....  128

ORBITAL ENERGIES
----------------

  NO   OCC          E(Eh)            E(eV)
   0   2.0000     -92.183108     -2508.4299
   1   2.0000     -20.534229      -558.7648
   2   2.0000     -20.534210      -558.7643
   3   2.0000     -11.288426      -307.1737
   4   2.0000     -11.285817      -307.1027
   5   2.0000     -11.249968      -306.1272
   6   2.0000      -9.159543      -249.2438
   7   2.0000      -6.844178      -186.2396
   8   2.0000      -6.842841      -186.2032
   9   2.0000      -6.842579      -186.1961
  10   2.0000      -1.430059       -38.9139
  11   2.0000      -1.317850       -35.8605
  12   2.0000      -1.086244       -29.5582
  13   2.0000      -1.032633       -28.0994
  14   2.0000      -0.908854       -24.7312
  15   2.0000      -0.802403       -21.8345
  16   2.0000      -0.686470       -18.6798
  17   2.0000      -0.667014       -18.1504
  18   2.0000      -0.651466       -17.7273
  19   2.0000      -0.630381       -17.1535
  20   2.0000      -0.607028       -16.5181
  21   2.0000      -0.590040       -16.0558
  22   2.0000      -0.557486       -15.1700
  23   2.0000      -0.548487       -14.9251
  24   2.0000      -0.528869       -14.3912
  25   2.0000      -0.476887       -12.9768
  26   2.0000      -0.470820       -12.8117
  27   2.0000      -0.448219       -12.1966
  28   2.0000      -0.420086       -11.4311
  29   0.0000       0.155510         4.2316
  30   0.0000       0.183143         4.9836
  31   0.0000       0.198566         5.4033
  32   0.0000       0.219518         5.9734
  33   0.0000       0.228714         6.2236

MULLIKEN ATOMIC CHARGES
-----------------------
   0 C :   -0.054530
   1 C :   -0.223455
   2 S :    1.067463
   3 O :   -0.624006
   4 C :   -0.161031
   5 O :   -0.624006
   6 H :    0.051173
   7 H :    0.072935
   8 H :    0.072935
   9 H :    0.077197
  10 H :    0.077197
  11 H :    0.104513
  12 H :    0.081807
  13 H :    0.081807
Sum of atomic charges:    0.0000000

LOEWDIN ATOMIC CHARGES
----------------------
   0 C :   -0.053226
   1 C :   -0.130269
   2 S :    1.102453
   3 O :   -0.532275
   4 C :   -0.139897
   5 O :   -0.532275
   6 H :    0.033075
   7 H :    0.036414
   8 H :    0.036414
   9 H :    0.030636
  10 H :    0.030636
  11 H :    0.047100
  12 H :    0.035606
  13 H :    0.035606

  Mayer bond orders larger than 0.1
B(  0-C ,  1-C ) :   1.0472 B(  0-C ,  6-H ) :   0.9785 B(  0-C ,  7-H ) :   0.9756
B(  0-C ,  8-H ) :   0.9756 B(  1-C ,  2-S ) :   0.9036 B(  1-C ,  9-H ) :   0.9547
B(  1-C , 10-H ) :   0.9547 B(  2-S ,  3-O ) :   1.6600 B(  2-S ,  4-C ) :   0.9360
B(  2-S ,  5-O ) :   1.6600 B(  4-C , 11-H ) :   0.9669 B(  4-C , 12-H ) :   0.9651
B(  4-C , 13-H ) :   0.9651

E(0)                                       ...   -665.439884412
E(0)                                       ...   -665.439884412
E(CORR)(strong-pairs)                      ...     -1.001650666
E(CORR)(weak-pairs)                        ...     -0.000336144
E(CORR)(corrected)                         ...     -1.001986810
E(TOT)                                     ...   -666.441871222
E(CCSD(T))                                 ...   -666.471773934
FINAL SINGLE POINT ENERGY      -666.471773934232

DIPOLE MOMENT
-------------
                                X             Y             Z
Electronic contribution:     -5.32897      -1.28290       0.00000
Nuclear contribution   :      6.67884       2.80387       0.00000
                        -----------------------------------------
Total Dipole Moment    :      1.34988       1.52097       0.00000
                        -----------------------------------------
Magnitude (a.u.)       :      2.03359
Magnitude (Debye)      :      5.16898

Rotational constants in cm-1:     0.143865     0.075092     0.074193
Rotational constants in MHz :  4312.976552  2251.200240  2224.250430

                             ****ORCA TERMINATED NORMALLY****
TOTAL RUN TIME: 0 days 0 hours 1 minutes 30 seconds 387 msec
