                         Program Version 4.1.x  -  STABLE  -
|  1> ! RHF DLPNO-CCSD(T) cc-pVDZ RIJK cc-pVTZ/JK cc-pVDZ/C
|  2> ! KDIIS SOSCF TightSCF TightPNO
|  3>
|  4> %pal nprocs 4 end
|  5>
|  6> %maxcore 8000
|  7>
|  8> %scf maxiter 300
|  9>      shift shift 0.2 erroff 0.1 end
| 10> end
| 11>
| 12> * xyzfile 0 1 methoxycyclohexane_eq.xyz
| 13>
| 14>
| 15>                          ****END OF INPUT****

CARTESIAN COORDINATES (ANGSTROEM)
---------------------------------
  C      0.601420   -0.196540    0.196660
  C     -0.325870   -1.348010   -0.196500
  C     -1.762380   -1.117110    0.300510
  C     -2.318510    0.231750   -0.182340
  C     -1.384360    1.388560    0.204730
  C      0.050350    1.149880   -0.299020
  O      1.890920   -0.495670   -0.344150
  C      2.963200    0.242000    0.214080
  H     -2.407430   -1.938480   -0.033920
  H     -1.776490   -1.140500    1.400080
  H     -3.321240    0.399400    0.229910
  H     -2.428540    0.207040   -1.276130
  H     -1.373390    1.493410    1.299660
  H     -1.764800    2.337650   -0.191970
  H     -0.316850   -1.433730   -1.291660
  H      0.079900   -2.286260    0.198410
  H      0.700100    1.973060    0.020540
  H      0.064360    1.137910   -1.397670
  H      0.682850   -0.164140    1.298960
  H      3.882790   -0.166530   -0.211910
  H      2.910270    1.312580   -0.029130
  H      2.997990    0.130780    1.309320

 Total Charge           Charge          ....    0
 Multiplicity           Mult            ....    1
 Number of Electrons    NEL             ....   64
 Basis Dimension        Dim             ....  182

ORBITAL ENERGIES
----------------

  NO   OCC          E(Eh)            E(eV)
   0   2.0000     -20.545474      -559.0708
   1   2.0000     -11.274628      -306.7982
   2   2.0000     -11.272792      -306.7483
   3   2.0000     -11.225697      -305.4667
   4   2.0000     -11.223555      -305.4085
   5   2.0000     -11.222752      -305.3866
   6   2.0000     -11.220691      -305.3305
   7   2.0000     -11.217477      -305.2431
   8   2.0000      -1.361482       -37.0478
   9   2.0000      -1.109465       -30.1901
  10   2.0000      -1.004437       -27.3321
  11   2.0000      -0.999342       -27.1935
  12   2.0000      -0.911629       -24.8067
  13   2.0000      -0.834012       -22.6946
  14   2.0000      -0.811955       -22.0944
  15   2.0000      -0.757225       -20.6051
  16   2.0000      -0.659717       -17.9518
  17   2.0000      -0.645115       -17.5545
  18   2.0000      -0.621743       -16.9185
  19   2.0000      -0.615804       -16.7569
  20   2.0000      -0.589901       -16.0520
  21   2.0000      -0.584833       -15.9141
  22   2.0000      -0.556845       -15.1525
  23   2.0000      -0.526057       -14.3147
  24   2.0000      -0.511343       -13.9144
  25   2.0000      -0.497444       -13.5362
  26   2.0000      -0.482254       -13.1228
  27   2.0000      -0.469230       -12.7684
  28   2.0000      -0.455277       -12.3887
  29   2.0000      -0.445603       -12.1255
  30   2.0000      -0.434380       -11.8201
  31   2.0000      -0.399893       -10.8816
  32   0.0000       0.177921         4.8415
  33   0.0000       0.192049         5.2259
  34   0.0000       0.203653         5.5417
  35   0.0000       0.218076         5.9341
  36   0.0000       0.238272         6.4837

MULLIKEN ATOMIC CHARGES
-----------------------
   0 C :    0.135039
   1 C :    0.008839
   2 C :   -0.053458
   3 C :   -0.039738
   4 C :   -0.048257
   5 C :   -0.018809
   6 O :   -0.501871
   7 C :    0.179907
   8 H :    0.026969
   9 H :    0.023001
  10 H :    0.023721
  11 H :    0.025664
  12 H :    0.023090
  13 H :    0.026458
  14 H :    0.031392
  15 H :    0.029722
  16 H :    0.023686
  17 H :    0.031905
  18 H :    0.003746
  19 H :    0.041390
  20 H :    0.015665
  21 H :    0.011939
Sum of atomic charges:   -0.0000000

LOEWDIN ATOMIC CHARGES
----------------------
   0 C :    0.006543
   1 C :   -0.025646
   2 C :   -0.033404
   3 C :   -0.033476
   4 C :   -0.032416
   5 C :   -0.035724
   6 O :   -0.084266
   7 C :    0.011947
   8 H :    0.021330
   9 H :    0.015821
  10 H :    0.019608
  11 H :    0.017149
  12 H :    0.016031
  13 H :    0.021104
  14 H :    0.020933
  15 H :    0.022646
  16 H :    0.017200
  17 H :    0.020179
  18 H :    0.002294
  19 H :    0.021777
  20 H :    0.004794
  21 H :    0.005576

  Mayer bond orders larger than 0.1
B(  0-C ,  1-C ) :   1.0409 B(  0-C ,  5-C ) :   1.0255 B(  0-C ,  6-O ) :   0.9297
B(  0-C , 18-H ) :   0.9523 B(  1-C ,  2-C ) :   1.0407 B(  1-C , 14-H ) :   0.9594
B(  1-C , 15-H ) :   0.9679 B(  2-C ,  3-C ) :   1.0408 B(  2-C ,  8-H ) :   0.9724
B(  2-C ,  9-H ) :   0.9636 B(  3-C ,  4-C ) :   1.0444 B(  3-C , 10-H ) :   0.9723
B(  3-C , 11-H ) :   0.9647 B(  4-C ,  5-C ) :   1.0423 B(  4-C , 12-H ) :   0.9634
B(  4-C , 13-H ) :   0.9707 B(  5-C , 16-H ) :   0.9654 B(  5-C , 17-H ) :   0.9588
B(  6-O ,  7-C ) :   0.9797 B(  7-C , 19-H ) :   0.9955 B(  7-C , 20-H ) :   0.9806
B(  7-C , 21-H ) :   0.9801

E(0)                                       ...   -348.108974095
E(0)                                       ...   -348.108974095
E(CORR)(strong-pairs)                      ...     -1.270077254
E(CORR)(weak-pairs)                        ...     -0.000712634
E(CORR)(corrected)                         ...     -1.270789888
E(TOT)                                     ...   -349.379763983
E(CCSD(T))                                 ...   -349.417536162
FINAL SINGLE POINT ENERGY      -349.417536161563

DIPOLE MOMENT
-------------
                                X             Y             Z
Electronic contribution:      2.02792      -1.57694      -1.02655
Nuclear contribution   :     -2.14805       1.95195       1.38847
                        -----------------------------------------
Total Dipole Moment    :     -0.12013       0.37502       0.36192
                        -----------------------------------------
Magnitude (a.u.)       :      0.53484
Magnitude (Debye)      :      1.35946

Rotational constants in cm-1:     0.131778     0.044689     0.036082
Rotational constants in MHz :  3950.607469  1339.731399  1081.721664

                             ****ORCA TERMINATED NORMALLY****
TOTAL RUN TIME: 0 days 0 hours 4 minutes 12 seconds 497 msec
