                         Program Version 4.1.x  -  STABLE  -
|  1> ! RHF DLPNO-CCSD(T) cc-pVDZ RIJK cc-pVTZ/JK cc-pVDZ/C
|  2> ! KDIIS SOSCF TightSCF TightPNO
|  3>
|  4> %pal nprocs 4 end
|  5>
|  6> %maxcore 8000
|  7>
|  8> %scf maxiter 300
|  9>      shift shift 0.2 erroff 0.1 end
| 10> end
| 11>
| 12> * xyzfile 0 1 methylcyclohexane_eq.xyz
| 13>
| 14>
| 15>                          ****END OF INPUT****

CARTESIAN COORDINATES (ANGSTROEM)
---------------------------------
  C     -1.020960   -0.000010   -0.328440
  C     -0.294150   -1.263880    0.168960
  C      1.196070   -1.268800   -0.209510
  C      1.908670   -0.000010    0.284320
  C      1.196060    1.268800   -0.209490
  C     -0.294150    1.263900    0.168960
  C     -2.500940   -0.000010    0.073760
  H      1.685270   -2.162890    0.196890
  H      1.290260   -1.332510   -1.303620
  H      2.955980    0.000020   -0.042860
  H      1.925210   -0.000010    1.384280
  H      1.290270    1.332520   -1.303600
  H      1.685300    2.162870    0.196920
  H     -0.390000   -1.318350    1.264560
  H     -0.788830   -2.159150   -0.230280
  H     -0.788850    2.159140   -0.230330
  H     -0.390040    1.318360    1.264550
  H     -0.969420    0.000030   -1.429480
  H     -2.610410   -0.000020    1.165750
  H     -3.019180    0.885740   -0.312090
  H     -3.019180   -0.885750   -0.312080

 Total Charge           Charge          ....    0
 Multiplicity           Mult            ....    1
 Number of Electrons    NEL             ....   56
 Basis Dimension        Dim             ....  168

ORBITAL ENERGIES
----------------

  NO   OCC          E(Eh)            E(eV)
   0   2.0000     -11.223893      -305.4177
   1   2.0000     -11.219737      -305.3046
   2   2.0000     -11.219471      -305.2973
   3   2.0000     -11.218882      -305.2813
   4   2.0000     -11.217949      -305.2559
   5   2.0000     -11.217904      -305.2547
   6   2.0000     -11.216265      -305.2101
   7   2.0000      -1.115244       -30.3473
   8   2.0000      -1.027084       -27.9484
   9   2.0000      -0.997371       -27.1398
  10   2.0000      -0.914259       -24.8782
  11   2.0000      -0.827807       -22.5258
  12   2.0000      -0.796920       -21.6853
  13   2.0000      -0.745828       -20.2950
  14   2.0000      -0.636715       -17.3259
  15   2.0000      -0.605014       -16.4633
  16   2.0000      -0.596507       -16.2318
  17   2.0000      -0.595686       -16.2094
  18   2.0000      -0.561655       -15.2834
  19   2.0000      -0.529383       -14.4052
  20   2.0000      -0.519962       -14.1489
  21   2.0000      -0.507232       -13.8025
  22   2.0000      -0.485180       -13.2024
  23   2.0000      -0.476062       -12.9543
  24   2.0000      -0.465038       -12.6543
  25   2.0000      -0.444495       -12.0953
  26   2.0000      -0.422607       -11.4997
  27   2.0000      -0.419144       -11.4055
  28   0.0000       0.180801         4.9198
  29   0.0000       0.195785         5.3276
  30   0.0000       0.200496         5.4558
  31   0.0000       0.215006         5.8506
  32   0.0000       0.249020         6.7762

MULLIKEN ATOMIC CHARGES
-----------------------
   0 C :   -0.223084
   1 C :   -0.003503
   2 C :   -0.030393
   3 C :   -0.042575
   4 C :   -0.030403
   5 C :   -0.003502
   6 C :    0.029041
   7 H :    0.022448
   8 H :    0.021636
   9 H :    0.021995
  10 H :    0.022236
  11 H :    0.021636
  12 H :    0.022449
  13 H :    0.018797
  14 H :    0.020959
  15 H :    0.020962
  16 H :    0.018796
  17 H :    0.013642
  18 H :    0.024800
  19 H :    0.027032
  20 H :    0.027030
Sum of atomic charges:   -0.0000000

LOEWDIN ATOMIC CHARGES
----------------------
   0 C :   -0.044535
   1 C :   -0.027478
   2 C :   -0.032638
   3 C :   -0.033724
   4 C :   -0.032640
   5 C :   -0.027476
   6 C :   -0.043594
   7 H :    0.019051
   8 H :    0.015765
   9 H :    0.018706
  10 H :    0.015591
  11 H :    0.015765
  12 H :    0.019052
  13 H :    0.014544
  14 H :    0.017713
  15 H :    0.017713
  16 H :    0.014542
  17 H :    0.014695
  18 H :    0.018583
  19 H :    0.020183
  20 H :    0.020181

  Mayer bond orders larger than 0.1
B(  0-C ,  1-C ) :   1.0165 B(  0-C ,  5-C ) :   1.0164 B(  0-C ,  6-C ) :   1.0673
B(  0-C , 17-H ) :   0.9520 B(  1-C ,  2-C ) :   1.0528 B(  1-C , 13-H ) :   0.9603
B(  1-C , 14-H ) :   0.9692 B(  2-C ,  3-C ) :   1.0443 B(  2-C ,  7-H ) :   0.9717
B(  2-C ,  8-H ) :   0.9627 B(  3-C ,  4-C ) :   1.0443 B(  3-C ,  9-H ) :   0.9729
B(  3-C , 10-H ) :   0.9642 B(  4-C ,  5-C ) :   1.0528 B(  4-C , 11-H ) :   0.9627
B(  4-C , 12-H ) :   0.9717 B(  5-C , 15-H ) :   0.9692 B(  5-C , 16-H ) :   0.9603
B(  6-C , 18-H ) :   0.9749 B(  6-C , 19-H ) :   0.9795 B(  6-C , 20-H ) :   0.9795

E(0)                                       ...   -273.262125518
E(0)                                       ...   -273.262125518
E(CORR)(strong-pairs)                      ...     -1.091966982
E(CORR)(weak-pairs)                        ...     -0.000463855
E(CORR)(corrected)                         ...     -1.092430837
E(TOT)                                     ...   -274.354556356
E(CCSD(T))                                 ...   -274.387975796
FINAL SINGLE POINT ENERGY      -274.387975796427

DIPOLE MOMENT
-------------
                                X             Y             Z
Electronic contribution:      1.24640      -0.00003      -0.35576
Nuclear contribution   :     -1.22495       0.00002       0.33057
                        -----------------------------------------
Total Dipole Moment    :      0.02145      -0.00001      -0.02519
                        -----------------------------------------
Magnitude (a.u.)       :      0.03308
Magnitude (Debye)      :      0.08409

Rotational constants in cm-1:     0.139315     0.072141     0.052393
Rotational constants in MHz :  4176.573434  2162.727271  1570.707536

                             ****ORCA TERMINATED NORMALLY****
TOTAL RUN TIME: 0 days 0 hours 3 minutes 21 seconds 988 msec
