                         Program Version 4.2.1 -  RELEASE  -
|  1> ! RHF DLPNO-CCSD(T) cc-pVDZ RIJK cc-pVTZ/JK cc-pVDZ/C
|  2> ! KDIIS SOSCF TightSCF TightPNO
|  3>
|  4> %pal nprocs 10 end
|  5>
|  6> %maxcore 8000
|  7>
|  8> %scf maxiter 300
|  9>      shift shift 0.2 erroff 0.1 end
| 10> end
| 11>
| 12> * xyzfile 0 1 methylethylsulfide_a.xyz
| 13>
| 14>
| 15>                          ****END OF INPUT****

CARTESIAN COORDINATES (ANGSTROEM)
---------------------------------
  C     -2.188120   -0.023540    0.000010
  C     -0.809680    0.637770   -0.000010
  S      0.511760   -0.639470   -0.000000
  C      1.984550    0.440240    0.000010
  H     -2.972250    0.741270    0.000000
  H     -2.326930   -0.650700   -0.886410
  H     -0.687320    1.269250   -0.887160
  H     -2.326900   -0.650670    0.886450
  H     -0.687320    1.269260    0.887130
  H      2.860730   -0.212410   -0.000010
  H      2.015650    1.069340   -0.894570
  H      2.015650    1.069320    0.894590

 Total Charge           Charge          ....    0
 Multiplicity           Mult            ....    1
 Number of Electrons    NEL             ....   42
 Basis Dimension        Dim             ....  100

ORBITAL ENERGIES
----------------

  NO   OCC          E(Eh)            E(eV)
   0   2.0000     -91.934328     -2501.6602
   1   2.0000     -11.260737      -306.4202
   2   2.0000     -11.257007      -306.3187
   3   2.0000     -11.231511      -305.6250
   4   2.0000      -8.937301      -243.1963
   5   2.0000      -6.619259      -180.1192
   6   2.0000      -6.617707      -180.0770
   7   2.0000      -6.615498      -180.0169
   8   2.0000      -1.071022       -29.1440
   9   2.0000      -0.994920       -27.0731
  10   2.0000      -0.875812       -23.8320
  11   2.0000      -0.789276       -21.4773
  12   2.0000      -0.625139       -17.0109
  13   2.0000      -0.592962       -16.1353
  14   2.0000      -0.580374       -15.7928
  15   2.0000      -0.576672       -15.6920
  16   2.0000      -0.525453       -14.2983
  17   2.0000      -0.504310       -13.7230
  18   2.0000      -0.469128       -12.7656
  19   2.0000      -0.422030       -11.4840
  20   2.0000      -0.331703        -9.0261
  21   0.0000       0.171558         4.6683
  22   0.0000       0.180208         4.9037
  23   0.0000       0.228127         6.2077
  24   0.0000       0.235251         6.4015
  25   0.0000       0.246066         6.6958

MULLIKEN ATOMIC CHARGES
-----------------------
   0 C :   -0.039474
   1 C :   -0.175495
   2 S :   -0.089570
   3 C :   -0.143382
   4 H :    0.039069
   5 H :    0.047410
   6 H :    0.059643
   7 H :    0.047411
   8 H :    0.059642
   9 H :    0.069960
  10 H :    0.062393
  11 H :    0.062394
Sum of atomic charges:    0.0000000

LOEWDIN ATOMIC CHARGES
----------------------
   0 C :   -0.062275
   1 C :   -0.130949
   2 S :    0.176537
   3 C :   -0.154204
   4 H :    0.026557
   5 H :    0.025553
   6 H :    0.014935
   7 H :    0.025552
   8 H :    0.014935
   9 H :    0.027773
  10 H :    0.017794
  11 H :    0.017792

  Mayer bond orders larger than 0.100000
B(  0-C ,  1-C ) :   1.0583 B(  0-C ,  4-H ) :   0.9800 B(  0-C ,  5-H ) :   0.9795
B(  0-C ,  7-H ) :   0.9795 B(  1-C ,  2-S ) :   1.0011 B(  1-C ,  6-H ) :   0.9665
B(  1-C ,  8-H ) :   0.9665 B(  2-S ,  3-C ) :   1.0159 B(  3-C ,  9-H ) :   0.9831
B(  3-C , 10-H ) :   0.9779 B(  3-C , 11-H ) :   0.9779

E(0)                                       ...   -515.796190733
E(0)                                       ...   -515.796190733
E(CORR)(strong-pairs)                      ...     -0.633352897
E(CORR)(weak-pairs)                        ...     -0.000130800
E(CORR)(corrected)                         ...     -0.633483697
E(TOT)                                     ...   -516.429674430
E(CCSD(T))                                 ...   -516.447533590
FINAL SINGLE POINT ENERGY      -516.447533589514

DIPOLE MOMENT
-------------
                                X             Y             Z
Electronic contribution:      2.18235      -3.40074      -0.00000
Nuclear contribution   :     -2.20041       4.06467       0.00000
                        -----------------------------------------
Total Dipole Moment    :     -0.01806       0.66393       0.00000
                        -----------------------------------------
Magnitude (a.u.)       :      0.66417
Magnitude (Debye)      :      1.68819

Rotational constants in cm-1:     0.529016     0.103373     0.090939
Rotational constants in MHz : 15859.502684  3099.059325  2726.284347

                             ****ORCA TERMINATED NORMALLY****
TOTAL RUN TIME: 0 days 0 hours 0 minutes 38 seconds 247 msec
