                         Program Version 4.1.x  -  STABLE  -
|  1> ! RHF DLPNO-CCSD(T) cc-pVDZ RIJK cc-pVTZ/JK cc-pVDZ/C
|  2> ! KDIIS SOSCF TightSCF TightPNO
|  3>
|  4> %pal nprocs 4 end
|  5>
|  6> %maxcore 8000
|  7>
|  8> %scf maxiter 300
|  9>      shift shift 0.2 erroff 0.1 end
| 10> end
| 11>
| 12> * xyzfile 0 1 methyl_glycolate_sk.xyz
| 13>
| 14>
| 15>                          ****END OF INPUT****

CARTESIAN COORDINATES (ANGSTROEM)
---------------------------------
  C      2.096940   -0.692390   -0.000000
  O      0.654690   -0.706310    0.000030
  C      0.062020    0.491920   -0.000000
  O      0.653490    1.554650   -0.000050
  C     -1.456820    0.431740    0.000060
  O     -1.942270   -0.897970   -0.000030
  H     -1.784190    0.993700    0.886470
  H     -1.784270    0.993840   -0.886210
  H     -2.907370   -0.872140   -0.000240
  H      2.393110   -1.740600    0.000140
  H      2.471290   -0.182830   -0.890880
  H      2.471350   -0.182540    0.890680

 Total Charge           Charge          ....    0
 Multiplicity           Mult            ....    1
 Number of Electrons    NEL             ....   48
 Basis Dimension        Dim             ....  114

ORBITAL ENERGIES
----------------

  NO   OCC          E(Eh)            E(eV)
   0   2.0000     -20.603129      -560.6396
   1   2.0000     -20.569319      -559.7196
   2   2.0000     -20.542305      -558.9845
   3   2.0000     -11.384660      -309.7924
   4   2.0000     -11.305474      -307.6376
   5   2.0000     -11.292888      -307.2951
   6   2.0000      -1.459613       -39.7181
   7   2.0000      -1.370411       -37.2908
   8   2.0000      -1.354150       -36.8483
   9   2.0000      -1.011783       -27.5320
  10   2.0000      -0.942713       -25.6525
  11   2.0000      -0.775472       -21.1017
  12   2.0000      -0.713158       -19.4060
  13   2.0000      -0.694516       -18.8987
  14   2.0000      -0.680312       -18.5122
  15   2.0000      -0.653172       -17.7737
  16   2.0000      -0.633648       -17.2424
  17   2.0000      -0.584665       -15.9095
  18   2.0000      -0.537419       -14.6239
  19   2.0000      -0.530797       -14.4437
  20   2.0000      -0.521738       -14.1972
  21   2.0000      -0.469053       -12.7636
  22   2.0000      -0.445305       -12.1174
  23   2.0000      -0.443178       -12.0595
  24   0.0000       0.173259         4.7146
  25   0.0000       0.178452         4.8559
  26   0.0000       0.199749         5.4354
  27   0.0000       0.224395         6.1061
  28   0.0000       0.257368         7.0033

MULLIKEN ATOMIC CHARGES
-----------------------
   0 C :    0.166713
   1 O :   -0.420968
   2 C :    0.355884
   3 O :   -0.407026
   4 C :    0.230790
   5 O :   -0.362895
   6 H :    0.055251
   7 H :    0.055247
   8 H :    0.172751
   9 H :    0.054653
  10 H :    0.049797
  11 H :    0.049803
Sum of atomic charges:   -0.0000000

LOEWDIN ATOMIC CHARGES
----------------------
   0 C :    0.050703
   1 O :    0.007920
   2 C :   -0.040289
   3 O :   -0.144013
   4 C :    0.005031
   5 O :   -0.065635
   6 H :    0.029489
   7 H :    0.029485
   8 H :    0.054812
   9 H :    0.026960
  10 H :    0.022769
  11 H :    0.022768

  Mayer bond orders larger than 0.1
B(  0-C ,  1-O ) :   0.8939 B(  0-C ,  9-H ) :   0.9916 B(  0-C , 10-H ) :   0.9866
B(  0-C , 11-H ) :   0.9866 B(  1-O ,  2-C ) :   1.1599 B(  2-C ,  3-O ) :   2.0039
B(  2-C ,  4-C ) :   1.0137 B(  4-C ,  5-O ) :   1.0298 B(  4-C ,  6-H ) :   0.9576
B(  4-C ,  7-H ) :   0.9576 B(  5-O ,  8-H ) :   0.9930

E(0)                                       ...   -341.703292096
E(0)                                       ...   -341.703292096
E(CORR)(strong-pairs)                      ...     -0.999289032
E(CORR)(weak-pairs)                        ...     -0.000318155
E(CORR)(corrected)                         ...     -0.999607187
E(TOT)                                     ...   -342.702899282
E(CCSD(T))                                 ...   -342.730683808
FINAL SINGLE POINT ENERGY      -342.730683808100

DIPOLE MOMENT
-------------
                                X             Y             Z
Electronic contribution:     -1.37302       0.70737      -0.00004
Nuclear contribution   :      0.85057      -0.99212      -0.00003
                        -----------------------------------------
Total Dipole Moment    :     -0.52244      -0.28474      -0.00007
                        -----------------------------------------
Magnitude (a.u.)       :      0.59500
Magnitude (Debye)      :      1.51237

Rotational constants in cm-1:     0.212916     0.089229     0.064407
Rotational constants in MHz :  6383.050416  2675.010557  1930.885917

                             ****ORCA TERMINATED NORMALLY****
TOTAL RUN TIME: 0 days 0 hours 1 minutes 14 seconds 362 msec
