                         Program Version 4.1.x  -  STABLE  -
|  1> ! RHF DLPNO-CCSD(T) cc-pVDZ RIJK cc-pVTZ/JK cc-pVDZ/C
|  2> ! KDIIS SOSCF TightSCF TightPNO
|  3>
|  4> %pal nprocs 4 end
|  5>
|  6> %maxcore 8000
|  7>
|  8> %scf maxiter 300
|  9>      shift shift 0.2 erroff 0.1 end
| 10> end
| 11>
| 12> * xyzfile 0 1 methoxycyclohexane_ax.xyz
| 13>
| 14>
| 15>                          ****END OF INPUT****

CARTESIAN COORDINATES (ANGSTROEM)
---------------------------------
  C      0.623760   -0.309490    0.679210
  C      0.029250    1.103920    0.824880
  C     -0.990280    1.420350   -0.281580
  C     -2.097700    0.356160   -0.344460
  C     -1.508170   -1.053790   -0.509650
  C     -0.483630   -1.366170    0.593740
  O      1.419840   -0.443330   -0.506870
  C      2.693300    0.170250   -0.443160
  H     -1.424050    2.413930   -0.113830
  H     -0.471220    1.459800   -1.247890
  H     -2.788750    0.577420   -1.167290
  H     -2.691100    0.396330    0.581640
  H     -1.015920   -1.131320   -1.486890
  H     -2.307330   -1.805150   -0.495520
  H     -0.461070    1.160730    1.807280
  H      0.828570    1.854370    0.840160
  H     -0.024390   -2.347540    0.430040
  H     -0.992070   -1.404240    1.567420
  H      1.265660   -0.526230    1.549970
  H      3.224070   -0.105350   -1.357790
  H      2.632120    1.266760   -0.391100
  H      3.267660   -0.190210    0.424920

 Total Charge           Charge          ....    0
 Multiplicity           Mult            ....    1
 Number of Electrons    NEL             ....   64
 Basis Dimension        Dim             ....  182

ORBITAL ENERGIES
----------------

  NO   OCC          E(Eh)            E(eV)
   0   2.0000     -20.546790      -559.1066
   1   2.0000     -11.275719      -306.8279
   2   2.0000     -11.273908      -306.7786
   3   2.0000     -11.221430      -305.3506
   4   2.0000     -11.218346      -305.2667
   5   2.0000     -11.218290      -305.2652
   6   2.0000     -11.217711      -305.2494
   7   2.0000     -11.215264      -305.1829
   8   2.0000      -1.362503       -37.0756
   9   2.0000      -1.103306       -30.0225
  10   2.0000      -1.001958       -27.2647
  11   2.0000      -0.997021       -27.1303
  12   2.0000      -0.912921       -24.8418
  13   2.0000      -0.830384       -22.5959
  14   2.0000      -0.817742       -22.2519
  15   2.0000      -0.737448       -20.0670
  16   2.0000      -0.667767       -18.1709
  17   2.0000      -0.640086       -17.4176
  18   2.0000      -0.630618       -17.1600
  19   2.0000      -0.615493       -16.7484
  20   2.0000      -0.586461       -15.9584
  21   2.0000      -0.572027       -15.5656
  22   2.0000      -0.535949       -14.5839
  23   2.0000      -0.530195       -14.4273
  24   2.0000      -0.519488       -14.1360
  25   2.0000      -0.504311       -13.7230
  26   2.0000      -0.482901       -13.1404
  27   2.0000      -0.473948       -12.8968
  28   2.0000      -0.449983       -12.2447
  29   2.0000      -0.440915       -11.9979
  30   2.0000      -0.422305       -11.4915
  31   2.0000      -0.399910       -10.8821
  32   0.0000       0.175594         4.7782
  33   0.0000       0.198106         5.3907
  34   0.0000       0.208894         5.6843
  35   0.0000       0.224024         6.0960
  36   0.0000       0.242782         6.6064

MULLIKEN ATOMIC CHARGES
-----------------------
   0 C :    0.112589
   1 C :   -0.016293
   2 C :   -0.034642
   3 C :   -0.046313
   4 C :   -0.039984
   5 C :    0.009334
   6 O :   -0.497991
   7 C :    0.182912
   8 H :    0.020557
   9 H :    0.035115
  10 H :    0.023043
  11 H :    0.018275
  12 H :    0.041711
  13 H :    0.020305
  14 H :    0.022893
  15 H :    0.020633
  16 H :    0.032004
  17 H :    0.019663
  18 H :    0.007118
  19 H :    0.041400
  20 H :    0.015264
  21 H :    0.012407
Sum of atomic charges:    0.0000000

LOEWDIN ATOMIC CHARGES
----------------------
   0 C :    0.010400
   1 C :   -0.037294
   2 C :   -0.031740
   3 C :   -0.033367
   4 C :   -0.031112
   5 C :   -0.027559
   6 O :   -0.089372
   7 C :    0.011208
   8 H :    0.018297
   9 H :    0.020105
  10 H :    0.019153
  11 H :    0.013686
  12 H :    0.022443
  13 H :    0.018314
  14 H :    0.019800
  15 H :    0.017024
  16 H :    0.023116
  17 H :    0.018203
  18 H :    0.006502
  19 H :    0.021700
  20 H :    0.004482
  21 H :    0.006012

  Mayer bond orders larger than 0.1
B(  0-C ,  1-C ) :   1.0273 B(  0-C ,  5-C ) :   1.0532 B(  0-C ,  6-O ) :   0.9177
B(  0-C , 18-H ) :   0.9673 B(  1-C ,  2-C ) :   1.0355 B(  1-C , 14-H ) :   0.9611
B(  1-C , 15-H ) :   0.9676 B(  2-C ,  3-C ) :   1.0448 B(  2-C ,  8-H ) :   0.9732
B(  2-C ,  9-H ) :   0.9632 B(  3-C ,  4-C ) :   1.0450 B(  3-C , 10-H ) :   0.9728
B(  3-C , 11-H ) :   0.9646 B(  4-C ,  5-C ) :   1.0397 B(  4-C , 12-H ) :   0.9631
B(  4-C , 13-H ) :   0.9723 B(  5-C , 16-H ) :   0.9659 B(  5-C , 17-H ) :   0.9604
B(  6-O ,  7-C ) :   0.9800 B(  7-C , 19-H ) :   0.9951 B(  7-C , 20-H ) :   0.9801
B(  7-C , 21-H ) :   0.9807

E(0)                                       ...   -348.108831694
E(0)                                       ...   -348.108831694
E(CORR)(strong-pairs)                      ...     -1.270756210
E(CORR)(weak-pairs)                        ...     -0.000649790
E(CORR)(corrected)                         ...     -1.271406000
E(TOT)                                     ...   -349.380237694
E(CCSD(T))                                 ...   -349.418060838
FINAL SINGLE POINT ENERGY      -349.418060837993

DIPOLE MOMENT
-------------
                                X             Y             Z
Electronic contribution:      1.16628      -1.43229      -0.60990
Nuclear contribution   :     -0.98468       1.69714       0.98222
                        -----------------------------------------
Total Dipole Moment    :      0.18160       0.26486       0.37232
                        -----------------------------------------
Magnitude (a.u.)       :      0.49168
Magnitude (Debye)      :      1.24976

Rotational constants in cm-1:     0.108700     0.052457     0.044066
Rotational constants in MHz :  3258.757348  1572.609337  1321.068047

                             ****ORCA TERMINATED NORMALLY****
TOTAL RUN TIME: 0 days 0 hours 4 minutes 23 seconds 875 msec
