                         Program Version 4.2.1 -  RELEASE  -
|  1> ! RHF DLPNO-CCSD(T) cc-pVDZ RIJK cc-pVTZ/JK cc-pVDZ/C
|  2> ! KDIIS SOSCF TightSCF TightPNO
|  3>
|  4> %pal nprocs 10 end
|  5>
|  6> %maxcore 8000
|  7>
|  8> %scf maxiter 300
|  9>      shift shift 0.2 erroff 0.1 end
| 10> end
| 11>
| 12> * xyzfile 0 1 methylethylsulfide_g.xyz
| 13>
| 14>
| 15>                          ****END OF INPUT****

CARTESIAN COORDINATES (ANGSTROEM)
---------------------------------
  C      1.852430    0.557400   -0.264310
  C      0.960400   -0.419000    0.502620
  S     -0.707350   -0.685800   -0.220600
  C     -1.501180    0.921930    0.134650
  H      2.837580    0.624990    0.213440
  H      1.993420    0.229340   -1.298540
  H      1.409530   -1.417400    0.515740
  H      1.426800    1.565740   -0.284300
  H      0.839520   -0.108440    1.546900
  H     -2.533940    0.844410   -0.213330
  H     -1.508360    1.127590    1.209290
  H     -1.016750    1.744550   -0.397260

 Total Charge           Charge          ....    0
 Multiplicity           Mult            ....    1
 Number of Electrons    NEL             ....   42
 Basis Dimension        Dim             ....  100

ORBITAL ENERGIES
----------------

  NO   OCC          E(Eh)            E(eV)
   0   2.0000     -91.935236     -2501.6850
   1   2.0000     -11.261578      -306.4431
   2   2.0000     -11.256863      -306.3148
   3   2.0000     -11.230560      -305.5991
   4   2.0000      -8.938001      -243.2154
   5   2.0000      -6.619987      -180.1390
   6   2.0000      -6.618369      -180.0950
   7   2.0000      -6.616255      -180.0374
   8   2.0000      -1.071101       -29.1461
   9   2.0000      -0.991658       -26.9844
  10   2.0000      -0.885249       -24.0889
  11   2.0000      -0.784368       -21.3437
  12   2.0000      -0.625694       -17.0260
  13   2.0000      -0.600825       -16.3493
  14   2.0000      -0.580555       -15.7977
  15   2.0000      -0.557199       -15.1621
  16   2.0000      -0.534906       -14.5555
  17   2.0000      -0.510621       -13.8947
  18   2.0000      -0.469265       -12.7694
  19   2.0000      -0.419246       -11.4083
  20   2.0000      -0.332543        -9.0489
  21   0.0000       0.173945         4.7333
  22   0.0000       0.186071         5.0632
  23   0.0000       0.218761         5.9528
  24   0.0000       0.231619         6.3027
  25   0.0000       0.243547         6.6273

MULLIKEN ATOMIC CHARGES
-----------------------
   0 C :   -0.031183
   1 C :   -0.169055
   2 S :   -0.090305
   3 C :   -0.147017
   4 H :    0.034850
   5 H :    0.045618
   6 H :    0.066898
   7 H :    0.034018
   8 H :    0.059601
   9 H :    0.070767
  10 H :    0.061886
  11 H :    0.063923
Sum of atomic charges:   -0.0000000

LOEWDIN ATOMIC CHARGES
----------------------
   0 C :   -0.064988
   1 C :   -0.135694
   2 S :    0.181819
   3 C :   -0.155289
   4 H :    0.024537
   5 H :    0.025327
   6 H :    0.024937
   7 H :    0.020495
   8 H :    0.016571
   9 H :    0.028259
  10 H :    0.017893
  11 H :    0.016132

  Mayer bond orders larger than 0.100000
B(  0-C ,  1-C ) :   1.0329 B(  0-C ,  4-H ) :   0.9778 B(  0-C ,  5-H ) :   0.9815
B(  0-C ,  7-H ) :   0.9827 B(  1-C ,  2-S ) :   1.0105 B(  1-C ,  6-H ) :   0.9728
B(  1-C ,  8-H ) :   0.9691 B(  2-S ,  3-C ) :   1.0092 B(  3-C ,  9-H ) :   0.9833
B(  3-C , 10-H ) :   0.9779 B(  3-C , 11-H ) :   0.9778

E(0)                                       ...   -515.795782265
E(0)                                       ...   -515.795782265
E(CORR)(strong-pairs)                      ...     -0.633931591
E(CORR)(weak-pairs)                        ...     -0.000132565
E(CORR)(corrected)                         ...     -0.634064156
E(TOT)                                     ...   -516.429846421
E(CCSD(T))                                 ...   -516.447813783
FINAL SINGLE POINT ENERGY      -516.447813782690

DIPOLE MOMENT
-------------
                                X             Y             Z
Electronic contribution:     -3.30179      -4.25836      -1.04772
Nuclear contribution   :      3.59362       4.79751       1.34515
                        -----------------------------------------
Total Dipole Moment    :      0.29183       0.53915       0.29743
                        -----------------------------------------
Magnitude (a.u.)       :      0.68141
Magnitude (Debye)      :      1.73200

Rotational constants in cm-1:     0.320718     0.125952     0.103514
Rotational constants in MHz :  9614.897835  3775.942217  3103.258284

                             ****ORCA TERMINATED NORMALLY****
TOTAL RUN TIME: 0 days 0 hours 0 minutes 35 seconds 108 msec
