                         Program Version 4.1.x  -  STABLE  -
|  1> ! RHF DLPNO-CCSD(T) cc-pVDZ RIJK cc-pVTZ/JK cc-pVDZ/C
|  2> ! KDIIS SOSCF TightSCF TightPNO
|  3>
|  4> %pal nprocs 4 end
|  5>
|  6> %maxcore 8000
|  7>
|  8> %scf maxiter 300
|  9>      shift shift 0.2 erroff 0.1 end
| 10> end
| 11>
| 12> * xyzfile 0 1 methanol_anti.xyz
| 13>
| 14>
| 15>                          ****END OF INPUT****

CARTESIAN COORDINATES (ANGSTROEM)
---------------------------------
  C     -0.661930   -0.017790    0.000000
  O      0.739040    0.126810   -0.000000
  H      1.110210   -0.739120    0.000010
  H     -0.962740   -0.582400    0.913090
  H     -1.125450    0.996240    0.000000
  H     -0.962740   -0.582410   -0.913090

 Total Charge           Charge          ....    0
 Multiplicity           Mult            ....    1
 Number of Electrons    NEL             ....   18
 Basis Dimension        Dim             ....   48

ORBITAL ENERGIES
----------------

  NO   OCC          E(Eh)            E(eV)
   0   2.0000     -20.545553      -559.0729
   1   2.0000     -11.281675      -306.9900
   2   2.0000      -1.358011       -36.9534
   3   2.0000      -0.913706       -24.8632
   4   2.0000      -0.684830       -18.6352
   5   2.0000      -0.615246       -16.7417
   6   2.0000      -0.588111       -16.0033
   7   2.0000      -0.493146       -13.4192
   8   2.0000      -0.438018       -11.9191
   9   0.0000       0.182556         4.9676
  10   0.0000       0.226301         6.1580
  11   0.0000       0.262125         7.1328
  12   0.0000       0.266964         7.2645
  13   0.0000       0.361990         9.8503

MULLIKEN ATOMIC CHARGES
-----------------------
   0 C :    0.130564
   1 O :   -0.372021
   2 H :    0.149467
   3 H :    0.020628
   4 H :    0.050734
   5 H :    0.020628
Sum of atomic charges:   -0.0000000

LOEWDIN ATOMIC CHARGES
----------------------
   0 C :    0.002096
   1 O :   -0.072956
   2 H :    0.031183
   3 H :    0.007308
   4 H :    0.025060
   5 H :    0.007309

  Mayer bond orders larger than 0.1
B(  0-C ,  1-O ) :   0.9939 B(  0-C ,  3-H ) :   0.9861 B(  0-C ,  4-H ) :   0.9886
B(  0-C ,  5-H ) :   0.9861 B(  1-O ,  2-H ) :   1.0148

E(0)                                       ...   -115.047417179
E(0)                                       ...   -115.047417179
E(CORR)(strong-pairs)                      ...     -0.363352264
E(CORR)(weak-pairs)                        ...     -0.000030923
E(CORR)(corrected)                         ...     -0.363383188
E(TOT)                                     ...   -115.410800367
E(CCSD(T))                                 ...   -115.418227148
FINAL SINGLE POINT ENERGY      -115.418227147654

DIPOLE MOMENT
-------------
                                X             Y             Z
Electronic contribution:      1.69067       0.35361       0.00000
Nuclear contribution   :     -2.03523      -0.95554       0.00001
                        -----------------------------------------
Total Dipole Moment    :     -0.34457      -0.60193       0.00001
                        -----------------------------------------
Magnitude (a.u.)       :      0.69358
Magnitude (Debye)      :      1.76293

Rotational constants in cm-1:     4.096585     0.843249     0.812623
Rotational constants in MHz : 122812.539316 25279.979722 24361.827307

                             ****ORCA TERMINATED NORMALLY****
TOTAL RUN TIME: 0 days 0 hours 0 minutes 5 seconds 396 msec
