                         Program Version 4.1.x  -  STABLE  -
|  1> ! RHF DLPNO-CCSD(T) cc-pVDZ RIJK cc-pVTZ/JK cc-pVDZ/C
|  2> ! KDIIS SOSCF TightSCF TightPNO
|  3>
|  4> %pal nprocs 4 end
|  5>
|  6> %maxcore 8000
|  7>
|  8> %scf maxiter 300
|  9>      shift shift 0.2 erroff 0.1 end
| 10> end
| 11>
| 12> * xyzfile 0 1 methyl_glycolate_cis.xyz
| 13>
| 14>
| 15>                          ****END OF INPUT****

CARTESIAN COORDINATES (ANGSTROEM)
---------------------------------
  C     -2.383730   -0.073010   -0.000030
  O     -1.087750   -0.703810   -0.000020
  C     -0.023650    0.133930    0.000050
  O     -0.105300    1.338410    0.000040
  C      1.256520   -0.686970    0.000050
  O      2.365210    0.186190   -0.000110
  H      1.233440   -1.337330    0.887010
  H      1.233340   -1.337540   -0.886750
  H      3.173160   -0.341660    0.000130
  H     -3.104010   -0.890420    0.000020
  H     -2.504030    0.548510    0.890530
  H     -2.504040    0.548410   -0.890670

 Total Charge           Charge          ....    0
 Multiplicity           Mult            ....    1
 Number of Electrons    NEL             ....   48
 Basis Dimension        Dim             ....  114

ORBITAL ENERGIES
----------------

  NO   OCC          E(Eh)            E(eV)
   0   2.0000     -20.603388      -560.6467
   1   2.0000     -20.567234      -559.6629
   2   2.0000     -20.546671      -559.1034
   3   2.0000     -11.382842      -309.7429
   4   2.0000     -11.305846      -307.6477
   5   2.0000     -11.295431      -307.3643
   6   2.0000      -1.457632       -39.6642
   7   2.0000      -1.373460       -37.3737
   8   2.0000      -1.353147       -36.8210
   9   2.0000      -1.019062       -27.7301
  10   2.0000      -0.934632       -25.4326
  11   2.0000      -0.773423       -21.0459
  12   2.0000      -0.723670       -19.6921
  13   2.0000      -0.682332       -18.5672
  14   2.0000      -0.681637       -18.5483
  15   2.0000      -0.658861       -17.9285
  16   2.0000      -0.633895       -17.2492
  17   2.0000      -0.583591       -15.8803
  18   2.0000      -0.538596       -14.6559
  19   2.0000      -0.537022       -14.6131
  20   2.0000      -0.522437       -14.2162
  21   2.0000      -0.460564       -12.5326
  22   2.0000      -0.455868       -12.4048
  23   2.0000      -0.441702       -12.0193
  24   0.0000       0.172884         4.7044
  25   0.0000       0.182578         4.9682
  26   0.0000       0.199942         5.4407
  27   0.0000       0.221804         6.0356
  28   0.0000       0.252826         6.8798

MULLIKEN ATOMIC CHARGES
-----------------------
   0 C :    0.172425
   1 O :   -0.470065
   2 C :    0.365632
   3 O :   -0.360360
   4 C :    0.220486
   5 O :   -0.352162
   6 H :    0.050443
   7 H :    0.050448
   8 H :    0.170325
   9 H :    0.051225
  10 H :    0.050801
  11 H :    0.050801
Sum of atomic charges:    0.0000000

LOEWDIN ATOMIC CHARGES
----------------------
   0 C :    0.047997
   1 O :   -0.027197
   2 C :   -0.039771
   3 O :   -0.102895
   4 C :    0.000526
   5 O :   -0.055095
   6 H :    0.025472
   7 H :    0.025471
   8 H :    0.054074
   9 H :    0.025313
  10 H :    0.023051
  11 H :    0.023053

  Mayer bond orders larger than 0.1
B(  0-C ,  1-O ) :   0.8918 B(  0-C ,  9-H ) :   0.9917 B(  0-C , 10-H ) :   0.9873
B(  0-C , 11-H ) :   0.9873 B(  1-O ,  2-C ) :   1.1032 B(  2-C ,  3-O ) :   2.0667
B(  2-C ,  4-C ) :   1.0039 B(  4-C ,  5-O ) :   1.0463 B(  4-C ,  6-H ) :   0.9567
B(  4-C ,  7-H ) :   0.9567 B(  5-O ,  8-H ) :   0.9942

E(0)                                       ...   -341.704043226
E(0)                                       ...   -341.704043226
E(CORR)(strong-pairs)                      ...     -0.999605663
E(CORR)(weak-pairs)                        ...     -0.000358874
E(CORR)(corrected)                         ...     -0.999964537
E(TOT)                                     ...   -342.704007763
E(CCSD(T))                                 ...   -342.731711517
FINAL SINGLE POINT ENERGY      -342.731711516793

DIPOLE MOMENT
-------------
                                X             Y             Z
Electronic contribution:      2.30971       1.44715      -0.00003
Nuclear contribution   :     -2.45555      -2.79925       0.00027
                        -----------------------------------------
Total Dipole Moment    :     -0.14585      -1.35210       0.00024
                        -----------------------------------------
Magnitude (a.u.)       :      1.35994
Magnitude (Debye)      :      3.45669

Rotational constants in cm-1:     0.329141     0.071853     0.060322
Rotational constants in MHz :  9867.403439  2154.087625  1808.402796

                             ****ORCA TERMINATED NORMALLY****
TOTAL RUN TIME: 0 days 0 hours 1 minutes 20 seconds 514 msec
