                         Program Version 4.1.x  -  STABLE  -
|  1> ! RHF DLPNO-CCSD(T) cc-pVDZ RIJK cc-pVTZ/JK cc-pVDZ/C
|  2> ! KDIIS SOSCF TightSCF TightPNO
|  3>
|  4> %pal nprocs 4 end
|  5>
|  6> %maxcore 8000
|  7>
|  8> %scf maxiter 300
|  9>      shift shift 0.2 erroff 0.1 end
| 10> end
| 11>
| 12> * xyzfile 0 1 methylcyclohexane_ax.xyz
| 13>
| 14>
| 15>                          ****END OF INPUT****

CARTESIAN COORDINATES (ANGSTROEM)
---------------------------------
  C      1.130420    0.000000    0.493650
  C      0.252840    1.265640    0.630320
  C     -0.952940    1.270380   -0.325190
  C     -1.803730   -0.000000   -0.161900
  C     -0.952930   -1.270390   -0.325190
  C      0.252840   -1.265640    0.630320
  C      1.963990    0.000000   -0.799880
  H     -1.565430    2.162360   -0.143000
  H     -0.606480    1.344570   -1.365200
  H     -2.632010   -0.000010   -0.881560
  H     -2.259760    0.000010    0.839510
  H     -0.606480   -1.344550   -1.365200
  H     -1.565430   -2.162350   -0.143010
  H     -0.119900    1.323330    1.663300
  H      0.865430    2.162860    0.471650
  H      0.865430   -2.162870    0.471660
  H     -0.119910   -1.323330    1.663290
  H      1.842520    0.000000    1.331030
  H      1.340760    0.000010   -1.700150
  H      2.609150    0.885110   -0.847590
  H      2.609140   -0.885120   -0.847600

 Total Charge           Charge          ....    0
 Multiplicity           Mult            ....    1
 Number of Electrons    NEL             ....   56
 Basis Dimension        Dim             ....  168

ORBITAL ENERGIES
----------------

  NO   OCC          E(Eh)            E(eV)
   0   2.0000     -11.224618      -305.4374
   1   2.0000     -11.219269      -305.2918
   2   2.0000     -11.218829      -305.2798
   3   2.0000     -11.218508      -305.2711
   4   2.0000     -11.217991      -305.2570
   5   2.0000     -11.217931      -305.2554
   6   2.0000     -11.215605      -305.1921
   7   2.0000      -1.114185       -30.3185
   8   2.0000      -1.022306       -27.8184
   9   2.0000      -0.996915       -27.1274
  10   2.0000      -0.917794       -24.9745
  11   2.0000      -0.826292       -22.4845
  12   2.0000      -0.808446       -21.9989
  13   2.0000      -0.721733       -19.6394
  14   2.0000      -0.648957       -17.6590
  15   2.0000      -0.609705       -16.5909
  16   2.0000      -0.605167       -16.4674
  17   2.0000      -0.579294       -15.7634
  18   2.0000      -0.551653       -15.0113
  19   2.0000      -0.546970       -14.8838
  20   2.0000      -0.519238       -14.1292
  21   2.0000      -0.496452       -13.5092
  22   2.0000      -0.494969       -13.4688
  23   2.0000      -0.471749       -12.8369
  24   2.0000      -0.470112       -12.7924
  25   2.0000      -0.437768       -11.9123
  26   2.0000      -0.419877       -11.4254
  27   2.0000      -0.418343       -11.3837
  28   0.0000       0.173573         4.7231
  29   0.0000       0.196717         5.3529
  30   0.0000       0.212673         5.7871
  31   0.0000       0.221825         6.0362
  32   0.0000       0.242714         6.6046

MULLIKEN ATOMIC CHARGES
-----------------------
   0 C :   -0.193155
   1 C :    0.000554
   2 C :   -0.042202
   3 C :   -0.041358
   4 C :   -0.042193
   5 C :    0.000553
   6 C :    0.009725
   7 H :    0.022930
   8 H :    0.023429
   9 H :    0.021326
  10 H :    0.021214
  11 H :    0.023429
  12 H :    0.022928
  13 H :    0.020740
  14 H :    0.019298
  15 H :    0.019299
  16 H :    0.020738
  17 H :    0.010213
  18 H :    0.027238
  19 H :    0.027647
  20 H :    0.027647
Sum of atomic charges:   -0.0000000

LOEWDIN ATOMIC CHARGES
----------------------
   0 C :   -0.041432
   1 C :   -0.027168
   2 C :   -0.034311
   3 C :   -0.032919
   4 C :   -0.034308
   5 C :   -0.027169
   6 C :   -0.047365
   7 H :    0.019353
   8 H :    0.014929
   9 H :    0.018331
  10 H :    0.015293
  11 H :    0.014928
  12 H :    0.019351
  13 H :    0.016728
  14 H :    0.016941
  15 H :    0.016942
  16 H :    0.016727
  17 H :    0.018468
  18 H :    0.015628
  19 H :    0.020526
  20 H :    0.020526

  Mayer bond orders larger than 0.1
B(  0-C ,  1-C ) :   1.0353 B(  0-C ,  5-C ) :   1.0353 B(  0-C ,  6-C ) :   1.0337
B(  0-C , 17-H ) :   0.9627 B(  1-C ,  2-C ) :   1.0385 B(  1-C , 13-H ) :   0.9656
B(  1-C , 14-H ) :   0.9702 B(  2-C ,  3-C ) :   1.0432 B(  2-C ,  7-H ) :   0.9728
B(  2-C ,  8-H ) :   0.9653 B(  3-C ,  4-C ) :   1.0432 B(  3-C ,  9-H ) :   0.9731
B(  3-C , 10-H ) :   0.9647 B(  4-C ,  5-C ) :   1.0385 B(  4-C , 11-H ) :   0.9653
B(  4-C , 12-H ) :   0.9728 B(  5-C , 15-H ) :   0.9702 B(  5-C , 16-H ) :   0.9656
B(  6-C , 18-H ) :   0.9777 B(  6-C , 19-H ) :   0.9815 B(  6-C , 20-H ) :   0.9815

E(0)                                       ...   -273.258242549
E(0)                                       ...   -273.258242549
E(CORR)(strong-pairs)                      ...     -1.092834359
E(CORR)(weak-pairs)                        ...     -0.000470149
E(CORR)(corrected)                         ...     -1.093304508
E(TOT)                                     ...   -274.351547057
E(CCSD(T))                                 ...   -274.385052739
FINAL SINGLE POINT ENERGY      -274.385052739144

DIPOLE MOMENT
-------------
                                X             Y             Z
Electronic contribution:     -0.70319      -0.00003       0.92996
Nuclear contribution   :      0.70377       0.00003      -0.91350
                        -----------------------------------------
Total Dipole Moment    :      0.00058      -0.00000       0.01646
                        -----------------------------------------
Magnitude (a.u.)       :      0.01647
Magnitude (Debye)      :      0.04187

Rotational constants in cm-1:     0.116007     0.083092     0.063070
Rotational constants in MHz :  3477.813512  2491.038670  1890.801987

                             ****ORCA TERMINATED NORMALLY****
TOTAL RUN TIME: 0 days 0 hours 3 minutes 23 seconds 74 msec
