                         Program Version 4.1.x  -  STABLE  -
|  1> ! RHF DLPNO-CCSD(T) cc-pVDZ RIJK cc-pVTZ/JK cc-pVDZ/C
|  2> ! KDIIS SOSCF TightSCF TightPNO
|  3>
|  4> %pal nprocs 4 end
|  5>
|  6> %maxcore 8000
|  7>
|  8> %scf maxiter 300
|  9>      shift shift 0.2 erroff 0.1 end
| 10> end
| 11>
| 12> * xyzfile 0 1 methylformate_CO_Lp_ecl.xyz
| 13>
| 14>
| 15>                          ****END OF INPUT****

CARTESIAN COORDINATES (ANGSTROEM)
---------------------------------
  C      0.706340    0.281560   -0.217870
  O      1.741500   -0.104580    0.275510
  O     -0.432050   -0.451980   -0.344630
  C     -1.593820    0.116180    0.226740
  H      0.561730    1.310290   -0.628320
  H     -1.386570    0.418770    1.280570
  H     -1.929440    0.995110   -0.374400
  H     -2.396410   -0.658130    0.221870

 Total Charge           Charge          ....    0
 Multiplicity           Mult            ....    1
 Number of Electrons    NEL             ....   32
 Basis Dimension        Dim             ....   76

ORBITAL ENERGIES
----------------

  NO   OCC          E(Eh)            E(eV)
   0   2.0000     -20.600875      -560.5783
   1   2.0000     -20.569440      -559.7229
   2   2.0000     -11.398190      -310.1605
   3   2.0000     -11.319068      -308.0075
   4   2.0000      -1.458063       -39.6759
   5   2.0000      -1.374505       -37.4022
   6   2.0000      -0.976282       -26.5660
   7   2.0000      -0.838079       -22.8053
   8   2.0000      -0.723941       -19.6994
   9   2.0000      -0.681327       -18.5399
  10   2.0000      -0.666518       -18.1369
  11   2.0000      -0.612670       -16.6716
  12   2.0000      -0.553545       -15.0627
  13   2.0000      -0.514102       -13.9894
  14   2.0000      -0.466882       -12.7045
  15   2.0000      -0.455857       -12.4045
  16   0.0000       0.147351         4.0096
  17   0.0000       0.179786         4.8922
  18   0.0000       0.224977         6.1219
  19   0.0000       0.238955         6.5023
  20   0.0000       0.251798         6.8518

MULLIKEN ATOMIC CHARGES
-----------------------
   0 C :    0.433101
   1 O :   -0.321066
   2 O :   -0.435297
   3 C :    0.125759
   4 H :    0.030253
   5 H :    0.048970
   6 H :    0.042502
   7 H :    0.075778
Sum of atomic charges:   -0.0000000

LOEWDIN ATOMIC CHARGES
----------------------
   0 C :    0.018829
   1 O :   -0.078406
   2 O :   -0.030474
   3 C :    0.019541
   4 H :   -0.006051
   5 H :    0.020769
   6 H :    0.016885
   7 H :    0.038908

  Mayer bond orders larger than 0.1
B(  0-C ,  1-O ) :   2.1463 B(  0-C ,  2-O ) :   1.0760 B(  0-C ,  4-H ) :   0.9553
B(  2-O ,  3-C ) :   0.9264 B(  3-C ,  5-H ) :   0.9826 B(  3-C ,  6-H ) :   0.9812
B(  3-C ,  7-H ) :   0.9909

E(0)                                       ...   -227.784705821
E(0)                                       ...   -227.784705821
E(CORR)(strong-pairs)                      ...     -0.667769014
E(CORR)(weak-pairs)                        ...     -0.000117198
E(CORR)(corrected)                         ...     -0.667886213
E(TOT)                                     ...   -228.452592033
E(CCSD(T))                                 ...   -228.471576498
FINAL SINGLE POINT ENERGY      -228.471576498371

DIPOLE MOMENT
-------------
                                X             Y             Z
Electronic contribution:      3.83403      -1.24926      -0.60616
Nuclear contribution   :     -5.13401       2.05885       0.49902
                        -----------------------------------------
Total Dipole Moment    :     -1.29998       0.80959      -0.10714
                        -----------------------------------------
Magnitude (a.u.)       :      1.53521
Magnitude (Debye)      :      3.90220

Rotational constants in cm-1:     1.176607     0.159693     0.156664
Rotational constants in MHz : 35273.793395  4787.484463  4696.680923

                             ****ORCA TERMINATED NORMALLY****
TOTAL RUN TIME: 0 days 0 hours 1 minutes 10 seconds 154 msec
