                         Program Version 4.1.x  -  STABLE  -
|  1> ! RHF DLPNO-CCSD(T) cc-pVDZ RIJK cc-pVTZ/JK cc-pVDZ/C
|  2> ! KDIIS SOSCF TightSCF TightPNO
|  3>
|  4> %pal nprocs 4 end
|  5>
|  6> %maxcore 8000
|  7>
|  8> %scf maxiter 300
|  9>      shift shift 0.2 erroff 0.1 end
| 10> end
| 11>
| 12> * xyzfile 0 1 methanethiol_g.xyz
| 13>
| 14>
| 15>                          ****END OF INPUT****

CARTESIAN COORDINATES (ANGSTROEM)
---------------------------------
  C     -1.151800    0.019200    0.000000
  S      0.660500   -0.086100   -0.000000
  H      0.892200    1.229400    0.000100
  H     -1.517800    0.519300   -0.890800
  H     -1.514400   -1.004900   -0.000100
  H     -1.517800    0.519100    0.891000

 Total Charge           Charge          ....    0
 Multiplicity           Mult            ....    1
 Number of Electrons    NEL             ....   26
 Basis Dimension        Dim             ....   52

ORBITAL ENERGIES
----------------

  NO   OCC          E(Eh)            E(eV)
   0   2.0000     -91.946933     -2502.0032
   1   2.0000     -11.262205      -306.4602
   2   2.0000      -8.949982      -243.5414
   3   2.0000      -6.632108      -180.4688
   4   2.0000      -6.630619      -180.4283
   5   2.0000      -6.628211      -180.3628
   6   2.0000      -1.037570       -28.2337
   7   2.0000      -0.866329       -23.5740
   8   2.0000      -0.606718       -16.5096
   9   2.0000      -0.591052       -16.0834
  10   2.0000      -0.525265       -14.2932
  11   2.0000      -0.455668       -12.3993
  12   2.0000      -0.353448        -9.6178
  13   0.0000       0.158180         4.3043
  14   0.0000       0.199474         5.4280
  15   0.0000       0.246385         6.7045
  16   0.0000       0.251177         6.8349
  17   0.0000       0.251185         6.8351

MULLIKEN ATOMIC CHARGES
-----------------------
   0 C :   -0.153473
   1 S :   -0.123522
   2 H :    0.068606
   3 H :    0.068110
   4 H :    0.072162
   5 H :    0.068117
Sum of atomic charges:    0.0000000

LOEWDIN ATOMIC CHARGES
----------------------
   0 C :   -0.151135
   1 S :    0.110147
   2 H :   -0.027281
   3 H :    0.020118
   4 H :    0.028015
   5 H :    0.020135

  Mayer bond orders larger than 0.1
B(  0-C ,  1-S ) :   1.0250 B(  0-C ,  3-H ) :   0.9810 B(  0-C ,  4-H ) :   0.9821
B(  0-C ,  5-H ) :   0.9810 B(  1-S ,  2-H ) :   0.9790

E(0)                                       ...   -437.725490404
E(0)                                       ...   -437.725490404
E(CORR)(strong-pairs)                      ...     -0.321076040
E(CORR)(weak-pairs)                        ...     -0.000022877
E(CORR)(corrected)                         ...     -0.321098917
E(TOT)                                     ...   -438.046589320
E(CCSD(T))                                 ...   -438.054505104
FINAL SINGLE POINT ENERGY      -438.054505103599

DIPOLE MOMENT
-------------
                                X             Y             Z
Electronic contribution:      3.19432      -0.91734      -0.00015
Nuclear contribution   :     -3.73367       1.28460       0.00017
                        -----------------------------------------
Total Dipole Moment    :     -0.53935       0.36726       0.00002
                        -----------------------------------------
Magnitude (a.u.)       :      0.65251
Magnitude (Debye)      :      1.65856

Rotational constants in cm-1:     3.462798     0.431940     0.414236
Rotational constants in MHz : 103812.075635 12949.228756 12418.476365

                             ****ORCA TERMINATED NORMALLY****
TOTAL RUN TIME: 0 days 0 hours 0 minutes 23 seconds 836 msec
