                         Program Version 4.1.x  -  STABLE  -
|  1> ! RHF DLPNO-CCSD(T) cc-pVDZ RIJK cc-pVTZ/JK cc-pVDZ/C
|  2> ! KDIIS SOSCF TightSCF TightPNO
|  3>
|  4> %pal nprocs 4 end
|  5>
|  6> %maxcore 8000
|  7>
|  8> %scf maxiter 300
|  9>      shift shift 0.2 erroff 0.1 end
| 10> end
| 11>
| 12> * xyzfile 0 1 methanol_ecl.xyz
| 13>
| 14>
| 15>                          ****END OF INPUT****

CARTESIAN COORDINATES (ANGSTROEM)
---------------------------------
  C      0.662360    0.018660   -0.000000
  O     -0.740050   -0.127530    0.000000
  H     -1.118430    0.735130   -0.000010
  H      1.079990   -0.466700   -0.913120
  H      0.904680    1.106510   -0.000010
  H      1.080000   -0.466660    0.913140

 Total Charge           Charge          ....    0
 Multiplicity           Mult            ....    1
 Number of Electrons    NEL             ....   18
 Basis Dimension        Dim             ....   48

ORBITAL ENERGIES
----------------

  NO   OCC          E(Eh)            E(eV)
   0   2.0000     -20.544846      -559.0537
   1   2.0000     -11.281759      -306.9923
   2   2.0000      -1.357059       -36.9275
   3   2.0000      -0.913821       -24.8663
   4   2.0000      -0.686698       -18.6860
   5   2.0000      -0.612375       -16.6636
   6   2.0000      -0.588775       -16.0214
   7   2.0000      -0.491823       -13.3832
   8   2.0000      -0.437632       -11.9086
   9   0.0000       0.179307         4.8792
  10   0.0000       0.221655         6.0315
  11   0.0000       0.267647         7.2831
  12   0.0000       0.270764         7.3679
  13   0.0000       0.366529         9.9738

MULLIKEN ATOMIC CHARGES
-----------------------
   0 C :    0.134011
   1 O :   -0.374054
   2 H :    0.151657
   3 H :    0.035176
   4 H :    0.018037
   5 H :    0.035174
Sum of atomic charges:   -0.0000000

LOEWDIN ATOMIC CHARGES
----------------------
   0 C :    0.004439
   1 O :   -0.075839
   2 H :    0.031945
   3 H :    0.015177
   4 H :    0.009100
   5 H :    0.015177

  Mayer bond orders larger than 0.1
B(  0-C ,  1-O ) :   0.9925 B(  0-C ,  3-H ) :   0.9851 B(  0-C ,  4-H ) :   0.9928
B(  0-C ,  5-H ) :   0.9851 B(  1-O ,  2-H ) :   1.0182

E(0)                                       ...   -115.045663003
E(0)                                       ...   -115.045663003
E(CORR)(strong-pairs)                      ...     -0.363471645
E(CORR)(weak-pairs)                        ...     -0.000029729
E(CORR)(corrected)                         ...     -0.363501374
E(TOT)                                     ...   -115.409164377
E(CCSD(T))                                 ...   -115.416588359
FINAL SINGLE POINT ENERGY      -115.416588358638

DIPOLE MOMENT
-------------
                                X             Y             Z
Electronic contribution:     -1.70681      -0.31578      -0.00001
Nuclear contribution   :      2.04104       0.95614       0.00000
                        -----------------------------------------
Total Dipole Moment    :      0.33422       0.64036      -0.00001
                        -----------------------------------------
Magnitude (a.u.)       :      0.72234
Magnitude (Debye)      :      1.83603

Rotational constants in cm-1:     4.110701     0.839871     0.810047
Rotational constants in MHz : 123235.724125 25178.711803 24284.589811

                             ****ORCA TERMINATED NORMALLY****
TOTAL RUN TIME: 0 days 0 hours 0 minutes 6 seconds 202 msec
