                         Program Version 4.1.x  -  STABLE  -
|  1> ! RHF DLPNO-CCSD(T) cc-pVDZ RIJK cc-pVTZ/JK cc-pVDZ/C
|  2> ! KDIIS SOSCF TightSCF TightPNO
|  3>
|  4> %pal nprocs 4 end
|  5>
|  6> %maxcore 8000
|  7>
|  8> %scf maxiter 300
|  9>      shift shift 0.2 erroff 0.1 end
| 10> end
| 11>
| 12> * xyzfile 0 1 methylformate_H_Lp_ecl.xyz
| 13>
| 14>
| 15>                          ****END OF INPUT****

CARTESIAN COORDINATES (ANGSTROEM)
---------------------------------
  C     -0.839640    0.433110    0.000010
  O     -1.361360   -0.657360    0.000020
  O      0.493850    0.700780    0.000100
  C      1.400870   -0.388180   -0.000060
  H     -1.412560    1.391670   -0.000440
  H      2.047350   -0.315160    0.906440
  H      0.890510   -1.378580   -0.000260
  H      2.047490   -0.314790   -0.906410

 Total Charge           Charge          ....    0
 Multiplicity           Mult            ....    1
 Number of Electrons    NEL             ....   32
 Basis Dimension        Dim             ....   76

ORBITAL ENERGIES
----------------

  NO   OCC          E(Eh)            E(eV)
   0   2.0000     -20.612635      -560.8983
   1   2.0000     -20.560743      -559.4863
   2   2.0000     -11.397194      -310.1334
   3   2.0000     -11.301920      -307.5409
   4   2.0000      -1.460609       -39.7452
   5   2.0000      -1.369750       -37.2728
   6   2.0000      -0.982231       -26.7279
   7   2.0000      -0.812909       -22.1204
   8   2.0000      -0.730649       -19.8820
   9   2.0000      -0.677593       -18.4382
  10   2.0000      -0.665840       -18.1184
  11   2.0000      -0.591486       -16.0951
  12   2.0000      -0.551068       -14.9953
  13   2.0000      -0.520887       -14.1740
  14   2.0000      -0.459872       -12.5138
  15   2.0000      -0.457204       -12.4412
  16   0.0000       0.173219         4.7135
  17   0.0000       0.192697         5.2435
  18   0.0000       0.210946         5.7401
  19   0.0000       0.255613         6.9556
  20   0.0000       0.267503         7.2791

MULLIKEN ATOMIC CHARGES
-----------------------
   0 C :    0.437139
   1 O :   -0.367692
   2 O :   -0.438418
   3 C :    0.127459
   4 H :    0.064858
   5 H :    0.052638
   6 H :    0.071373
   7 H :    0.052642
Sum of atomic charges:   -0.0000000

LOEWDIN ATOMIC CHARGES
----------------------
   0 C :    0.016951
   1 O :   -0.116232
   2 O :   -0.017051
   3 C :    0.019978
   4 H :    0.016556
   5 H :    0.025898
   6 H :    0.028003
   7 H :    0.025897

  Mayer bond orders larger than 0.1
B(  0-C ,  1-O ) :   2.0590 B(  0-C ,  2-O ) :   1.1363 B(  0-C ,  4-H ) :   0.9633
B(  2-O ,  3-C ) :   0.8991 B(  3-C ,  5-H ) :   0.9892 B(  3-C ,  6-H ) :   0.9810
B(  3-C ,  7-H ) :   0.9892

E(0)                                       ...   -227.799971665
E(0)                                       ...   -227.799971665
E(CORR)(strong-pairs)                      ...     -0.668205414
E(CORR)(weak-pairs)                        ...     -0.000126972
E(CORR)(corrected)                         ...     -0.668332387
E(TOT)                                     ...   -228.468304052
E(CCSD(T))                                 ...   -228.487639064
FINAL SINGLE POINT ENERGY      -228.487639063529

DIPOLE MOMENT
-------------
                                X             Y             Z
Electronic contribution:     -2.93717       1.01087       0.00048
Nuclear contribution   :      3.56185      -0.61666      -0.00067
                        -----------------------------------------
Total Dipole Moment    :      0.62468       0.39420      -0.00018
                        -----------------------------------------
Magnitude (a.u.)       :      0.73866
Magnitude (Debye)      :      1.87753

Rotational constants in cm-1:     0.697117     0.214281     0.169356
Rotational constants in MHz : 20899.049750  6423.993254  5077.158344

                             ****ORCA TERMINATED NORMALLY****
TOTAL RUN TIME: 0 days 0 hours 1 minutes 2 seconds 608 msec
