                         Program Version 4.1.x  -  STABLE  -
|  1> ! RHF DLPNO-CCSD(T) cc-pVDZ RIJK cc-pVTZ/JK cc-pVDZ/C
|  2> ! KDIIS SOSCF TightSCF TightPNO
|  3>
|  4> %pal nprocs 4 end
|  5>
|  6> %maxcore 8000
|  7>
|  8> %scf maxiter 300
|  9>      shift shift 0.2 erroff 0.1 end
| 10> end
| 11>
| 12> * xyzfile 0 1 methanethiol_ecl.xyz
| 13>
| 14>
| 15>                          ****END OF INPUT****

CARTESIAN COORDINATES (ANGSTROEM)
---------------------------------
  C     -1.157400    0.013000    0.000000
  S      0.663600   -0.087800    0.000000
  H      0.896700    1.225000   -0.000000
  H     -1.471300    1.050900   -0.000600
  H     -1.549000   -0.475100   -0.886400
  H     -1.549000   -0.474100    0.887000

 Total Charge           Charge          ....    0
 Multiplicity           Mult            ....    1
 Number of Electrons    NEL             ....   26
 Basis Dimension        Dim             ....   52

ORBITAL ENERGIES
----------------

  NO   OCC          E(Eh)            E(eV)
   0   2.0000     -91.946205     -2501.9834
   1   2.0000     -11.262030      -306.4554
   2   2.0000      -8.949285      -243.5224
   3   2.0000      -6.631410      -180.4498
   4   2.0000      -6.629940      -180.4098
   5   2.0000      -6.627570      -180.3453
   6   2.0000      -1.035700       -28.1828
   7   2.0000      -0.867192       -23.5975
   8   2.0000      -0.606579       -16.5059
   9   2.0000      -0.589086       -16.0299
  10   2.0000      -0.529000       -14.3948
  11   2.0000      -0.452047       -12.3008
  12   2.0000      -0.352872        -9.6021
  13   0.0000       0.153737         4.1834
  14   0.0000       0.192864         5.2481
  15   0.0000       0.242147         6.5892
  16   0.0000       0.253565         6.8999
  17   0.0000       0.273048         7.4300

MULLIKEN ATOMIC CHARGES
-----------------------
   0 C :   -0.152999
   1 S :   -0.127760
   2 H :    0.071260
   3 H :    0.064850
   4 H :    0.072323
   5 H :    0.072324
Sum of atomic charges:   -0.0000000

LOEWDIN ATOMIC CHARGES
----------------------
   0 C :   -0.148207
   1 S :    0.104522
   2 H :   -0.025848
   3 H :    0.025586
   4 H :    0.021973
   5 H :    0.021974

  Mayer bond orders larger than 0.1
B(  0-C ,  1-S ) :   1.0129 B(  0-C ,  3-H ) :   0.9857 B(  0-C ,  4-H ) :   0.9823
B(  0-C ,  5-H ) :   0.9823 B(  1-S ,  2-H ) :   0.9847

E(0)                                       ...   -437.723203926
E(0)                                       ...   -437.723203926
E(CORR)(strong-pairs)                      ...     -0.321158105
E(CORR)(weak-pairs)                        ...     -0.000021214
E(CORR)(corrected)                         ...     -0.321179319
E(TOT)                                     ...   -438.044383245
E(CCSD(T))                                 ...   -438.052285886
FINAL SINGLE POINT ENERGY      -438.052285885808

DIPOLE MOMENT
-------------
                                X             Y             Z
Electronic contribution:      3.19893      -0.94852      -0.00002
Nuclear contribution   :     -3.74898       1.34951       0.00000
                        -----------------------------------------
Total Dipole Moment    :     -0.55005       0.40100      -0.00002
                        -----------------------------------------
Magnitude (a.u.)       :      0.68070
Magnitude (Debye)      :      1.73020

Rotational constants in cm-1:     3.473299     0.428221     0.410661
Rotational constants in MHz : 104126.893193 12837.747737 12311.295230

                             ****ORCA TERMINATED NORMALLY****
TOTAL RUN TIME: 0 days 0 hours 0 minutes 24 seconds 27 msec
