                         Program Version 4.1.x  -  STABLE  -
|  1> ! RHF DLPNO-CCSD(T) cc-pVDZ RIJK cc-pVTZ/JK cc-pVDZ/C
|  2> ! KDIIS SOSCF TightSCF TightPNO
|  3>
|  4> %pal nprocs 4 end
|  5>
|  6> %maxcore 8000
|  7>
|  8> %scf maxiter 300
|  9>      shift shift 0.2 erroff 0.1 end
| 10> end
| 11>
| 12> * xyzfile 0 1 methylformate_CO_Lp_g.xyz
| 13>
| 14>
| 15>                          ****END OF INPUT****

CARTESIAN COORDINATES (ANGSTROEM)
---------------------------------
  C     -0.830590    0.438230    0.000010
  O     -1.328010   -0.663760    0.000000
  O      0.500270    0.717570    0.000000
  C      1.366390   -0.400330   -0.000000
  H     -1.415360    1.389390   -0.000030
  H      1.203240   -1.012060    0.919380
  H      1.203160   -1.012100   -0.919340
  H      2.416030   -0.023080   -0.000050

 Total Charge           Charge          ....    0
 Multiplicity           Mult            ....    1
 Number of Electrons    NEL             ....   32
 Basis Dimension        Dim             ....   76

ORBITAL ENERGIES
----------------

  NO   OCC          E(Eh)            E(eV)
   0   2.0000     -20.612395      -560.8918
   1   2.0000     -20.561946      -559.5190
   2   2.0000     -11.395696      -310.0927
   3   2.0000     -11.303326      -307.5791
   4   2.0000      -1.463060       -39.8119
   5   2.0000      -1.369704       -37.2715
   6   2.0000      -0.980680       -26.6857
   7   2.0000      -0.812806       -22.1176
   8   2.0000      -0.729737       -19.8572
   9   2.0000      -0.676938       -18.4204
  10   2.0000      -0.670542       -18.2464
  11   2.0000      -0.593627       -16.1534
  12   2.0000      -0.545655       -14.8480
  13   2.0000      -0.522505       -14.2181
  14   2.0000      -0.461909       -12.5692
  15   2.0000      -0.459443       -12.5021
  16   0.0000       0.171501         4.6668
  17   0.0000       0.193001         5.2518
  18   0.0000       0.210759         5.7350
  19   0.0000       0.249432         6.7874
  20   0.0000       0.266085         7.2405

MULLIKEN ATOMIC CHARGES
-----------------------
   0 C :    0.432887
   1 O :   -0.366543
   2 O :   -0.433544
   3 C :    0.137083
   4 H :    0.063729
   5 H :    0.054182
   6 H :    0.054184
   7 H :    0.058023
Sum of atomic charges:   -0.0000000

LOEWDIN ATOMIC CHARGES
----------------------
   0 C :    0.015725
   1 O :   -0.113403
   2 O :   -0.015841
   3 C :    0.019633
   4 H :    0.015563
   5 H :    0.024293
   6 H :    0.024294
   7 H :    0.029734

  Mayer bond orders larger than 0.1
B(  0-C ,  1-O ) :   2.0580 B(  0-C ,  2-O ) :   1.1374 B(  0-C ,  4-H ) :   0.9665
B(  2-O ,  3-C ) :   0.9054 B(  3-C ,  5-H ) :   0.9854 B(  3-C ,  6-H ) :   0.9854
B(  3-C ,  7-H ) :   0.9910

E(0)                                       ...   -227.801623344
E(0)                                       ...   -227.801623344
E(CORR)(strong-pairs)                      ...     -0.668134588
E(CORR)(weak-pairs)                        ...     -0.000126500
E(CORR)(corrected)                         ...     -0.668261088
E(TOT)                                     ...   -228.469884432
E(CCSD(T))                                 ...   -228.489108027
FINAL SINGLE POINT ENERGY      -228.489108026741

DIPOLE MOMENT
-------------
                                X             Y             Z
Electronic contribution:     -2.79547       1.07878       0.00005
Nuclear contribution   :      3.39665      -0.65751      -0.00004
                        -----------------------------------------
Total Dipole Moment    :      0.60118       0.42127       0.00000
                        -----------------------------------------
Magnitude (a.u.)       :      0.73409
Magnitude (Debye)      :      1.86591

Rotational constants in cm-1:     0.678801     0.222810     0.173636
Rotational constants in MHz : 20349.946492  6679.663673  5205.486878

                             ****ORCA TERMINATED NORMALLY****
TOTAL RUN TIME: 0 days 0 hours 1 minutes 6 seconds 115 msec
