                         Program Version 4.1.x  -  STABLE  -
|  1> ! RHF DLPNO-CCSD(T) cc-pVDZ RIJK cc-pVTZ/JK cc-pVDZ/C
|  2> ! KDIIS SOSCF TightSCF TightPNO
|  3>
|  4> %pal nprocs 4 end
|  5>
|  6> %maxcore 8000
|  7>
|  8> %scf maxiter 300
|  9>      shift shift 0.2 erroff 0.1 end
| 10> end
| 11>
| 12> * xyzfile 0 1 N_2_dimethylpiperidine_eq_eq.xyz
| 13>
| 14>
| 15>                          ****END OF INPUT****

CARTESIAN COORDINATES (ANGSTROEM)
---------------------------------
  C     -1.941620    0.730680    0.243700
  C     -0.642790    1.456470   -0.121350
  C      0.614720    0.673470    0.299020
  N      0.573070   -0.688470   -0.270920
  C     -0.637300   -1.413520    0.134660
  C     -1.913260   -0.697950   -0.308460
  C      1.871220    1.440520   -0.131080
  C      1.758280   -1.480670    0.043720
  H      0.617420    0.603670    1.409630
  H     -0.661280   -1.555380    1.236930
  H     -0.594500   -2.413320   -0.311810
  H     -0.601050    1.614440   -1.207810
  H     -0.612650    2.446390    0.350350
  H     -2.786610   -1.268020    0.031650
  H     -1.944550   -0.673510   -1.405340
  H     -2.046970    0.696080    1.337760
  H     -2.809460    1.281320   -0.139140
  H      1.927240   -1.588070    1.134380
  H      1.641270   -2.483510   -0.378130
  H      2.652980   -1.039650   -0.399790
  H      1.795420    2.481840    0.199110
  H      2.787940    1.029540    0.300210
  H      1.967830    1.433410   -1.222800

 Total Charge           Charge          ....    0
 Multiplicity           Mult            ....    1
 Number of Electrons    NEL             ....   64
 Basis Dimension        Dim             ....  187

ORBITAL ENERGIES
----------------

  NO   OCC          E(Eh)            E(eV)
   0   2.0000     -15.540751      -422.8853
   1   2.0000     -11.252609      -306.1991
   2   2.0000     -11.245862      -306.0155
   3   2.0000     -11.243703      -305.9567
   4   2.0000     -11.220564      -305.3271
   5   2.0000     -11.218849      -305.2804
   6   2.0000     -11.218251      -305.2641
   7   2.0000     -11.217001      -305.2301
   8   2.0000      -1.224074       -33.3088
   9   2.0000      -1.067020       -29.0351
  10   2.0000      -1.036138       -28.1947
  11   2.0000      -0.943893       -25.6846
  12   2.0000      -0.913111       -24.8470
  13   2.0000      -0.837622       -22.7928
  14   2.0000      -0.803160       -21.8551
  15   2.0000      -0.745898       -20.2969
  16   2.0000      -0.644764       -17.5449
  17   2.0000      -0.628880       -17.1127
  18   2.0000      -0.613909       -16.7053
  19   2.0000      -0.605321       -16.4716
  20   2.0000      -0.591912       -16.1068
  21   2.0000      -0.552160       -15.0250
  22   2.0000      -0.536961       -14.6115
  23   2.0000      -0.530683       -14.4406
  24   2.0000      -0.517641       -14.0857
  25   2.0000      -0.509105       -13.8534
  26   2.0000      -0.494411       -13.4536
  27   2.0000      -0.471738       -12.8366
  28   2.0000      -0.459814       -12.5122
  29   2.0000      -0.438299       -11.9267
  30   2.0000      -0.429979       -11.7003
  31   2.0000      -0.346094        -9.4177
  32   0.0000       0.185289         5.0420
  33   0.0000       0.197176         5.3654
  34   0.0000       0.204422         5.5626
  35   0.0000       0.209504         5.7009
  36   0.0000       0.243326         6.6212

MULLIKEN ATOMIC CHARGES
-----------------------
   0 C :   -0.042788
   1 C :    0.006259
   2 C :   -0.032554
   3 N :   -0.502517
   4 C :    0.116425
   5 C :   -0.018250
   6 C :    0.017396
   7 C :    0.114175
   8 H :   -0.002854
   9 H :    0.000169
  10 H :    0.026734
  11 H :    0.028022
  12 H :    0.022142
  13 H :    0.021613
  14 H :    0.030935
  15 H :    0.020955
  16 H :    0.024975
  17 H :    0.001330
  18 H :    0.029928
  19 H :    0.037937
  20 H :    0.029321
  21 H :    0.032943
  22 H :    0.037704
Sum of atomic charges:   -0.0000000

LOEWDIN ATOMIC CHARGES
----------------------
   0 C :   -0.034191
   1 C :   -0.026762
   2 C :   -0.019060
   3 N :   -0.040564
   4 C :   -0.006749
   5 C :   -0.033245
   6 C :   -0.045268
   7 C :   -0.019037
   8 H :   -0.003813
   9 H :   -0.003703
  10 H :    0.017280
  11 H :    0.018956
  12 H :    0.019377
  13 H :    0.020280
  14 H :    0.019755
  15 H :    0.015929
  16 H :    0.019534
  17 H :   -0.001062
  18 H :    0.018654
  19 H :    0.017570
  20 H :    0.023644
  21 H :    0.019114
  22 H :    0.023361

  Mayer bond orders larger than 0.1
B(  0-C ,  1-C ) :   1.0576 B(  0-C ,  5-C ) :   1.0482 B(  0-C , 15-H ) :   0.9621
B(  0-C , 16-H ) :   0.9721 B(  1-C ,  2-C ) :   1.0314 B(  1-C , 11-H ) :   0.9571
B(  1-C , 12-H ) :   0.9664 B(  2-C ,  3-N ) :   0.9640 B(  2-C ,  6-C ) :   1.0674
B(  2-C ,  8-H ) :   0.9416 B(  3-N ,  4-C ) :   0.9862 B(  3-N ,  7-C ) :   1.0087
B(  4-C ,  5-C ) :   1.0592 B(  4-C ,  9-H ) :   0.9528 B(  4-C , 10-H ) :   0.9740
B(  5-C , 13-H ) :   0.9687 B(  5-C , 14-H ) :   0.9598 B(  6-C , 20-H ) :   0.9779
B(  6-C , 21-H ) :   0.9785 B(  6-C , 22-H ) :   0.9714 B(  7-C , 17-H ) :   0.9692
B(  7-C , 18-H ) :   0.9880 B(  7-C , 19-H ) :   0.9880

E(0)                                       ...   -328.274831468
E(0)                                       ...   -328.274831468
E(CORR)(strong-pairs)                      ...     -1.267323876
E(CORR)(weak-pairs)                        ...     -0.000595704
E(CORR)(corrected)                         ...     -1.267919580
E(TOT)                                     ...   -329.542751049
E(CCSD(T))                                 ...   -329.581915284
FINAL SINGLE POINT ENERGY      -329.581915284075

DIPOLE MOMENT
-------------
                                X             Y             Z
Electronic contribution:     -1.42552      -0.60788      -0.78380
Nuclear contribution   :      1.41894       0.59587       0.99127
                        -----------------------------------------
Total Dipole Moment    :     -0.00658      -0.01202       0.20747
                        -----------------------------------------
Magnitude (a.u.)       :      0.20792
Magnitude (Debye)      :      0.52850

Rotational constants in cm-1:     0.092269     0.065202     0.041365
Rotational constants in MHz :  2766.150434  1954.704440  1240.103996

                             ****ORCA TERMINATED NORMALLY****
TOTAL RUN TIME: 0 days 0 hours 4 minutes 32 seconds 754 msec
