                         Program Version 4.1.x  -  STABLE  -
|  1> ! RHF DLPNO-CCSD(T) cc-pVDZ RIJK cc-pVTZ/JK cc-pVDZ/C
|  2> ! KDIIS SOSCF TightSCF TightPNO
|  3>
|  4> %pal nprocs 4 end
|  5>
|  6> %maxcore 8000
|  7>
|  8> %scf maxiter 300
|  9>      shift shift 0.2 erroff 0.1 end
| 10> end
| 11>
| 12> * xyzfile 0 1 N_2_dimethylpiperidine_eq_ax.xyz
| 13>
| 14>
| 15>                          ****END OF INPUT****

CARTESIAN COORDINATES (ANGSTROEM)
---------------------------------
  C     -1.967150    0.155880    0.131040
  C     -1.079400    1.016650   -0.780490
  C      0.414100    0.916270   -0.411790
  N      0.811170   -0.506290   -0.418420
  C      0.030500   -1.353700    0.483870
  C     -1.462830   -1.293370    0.146420
  C      0.747860    1.689790    0.884390
  C      2.243440   -0.724940   -0.287480
  H      0.987070    1.386200   -1.222970
  H      0.184000   -1.083620    1.548860
  H      0.394870   -2.381800    0.371580
  H     -1.197780    0.676360   -1.816850
  H     -1.393590    2.067070   -0.745660
  H     -2.026430   -1.894390    0.870710
  H     -1.616660   -1.743830   -0.842830
  H     -1.963060    0.558620    1.153110
  H     -3.008160    0.196000   -0.211840
  H      2.643200   -0.517780    0.723410
  H      2.475890   -1.768490   -0.527310
  H      2.780030   -0.088880   -0.999930
  H      1.817360    1.644600    1.113240
  H      0.481680    2.746070    0.765170
  H      0.204360    1.308420    1.754540

 Total Charge           Charge          ....    0
 Multiplicity           Mult            ....    1
 Number of Electrons    NEL             ....   64
 Basis Dimension        Dim             ....  187

ORBITAL ENERGIES
----------------

  NO   OCC          E(Eh)            E(eV)
   0   2.0000     -15.536857      -422.7794
   1   2.0000     -11.251939      -306.1808
   2   2.0000     -11.245464      -306.0046
   3   2.0000     -11.244369      -305.9748
   4   2.0000     -11.220332      -305.3208
   5   2.0000     -11.218529      -305.2717
   6   2.0000     -11.217842      -305.2530
   7   2.0000     -11.215059      -305.1773
   8   2.0000      -1.221801       -33.2469
   9   2.0000      -1.065298       -28.9882
  10   2.0000      -1.029909       -28.0252
  11   2.0000      -0.947975       -25.7957
  12   2.0000      -0.910806       -24.7843
  13   2.0000      -0.836479       -22.7618
  14   2.0000      -0.818333       -22.2680
  15   2.0000      -0.721996       -19.6465
  16   2.0000      -0.658055       -17.9066
  17   2.0000      -0.626496       -17.0478
  18   2.0000      -0.617418       -16.8008
  19   2.0000      -0.598999       -16.2996
  20   2.0000      -0.570588       -15.5265
  21   2.0000      -0.559584       -15.2270
  22   2.0000      -0.544678       -14.8214
  23   2.0000      -0.537601       -14.6289
  24   2.0000      -0.524394       -14.2695
  25   2.0000      -0.504177       -13.7194
  26   2.0000      -0.490662       -13.3516
  27   2.0000      -0.475471       -12.9382
  28   2.0000      -0.454010       -12.3543
  29   2.0000      -0.437405       -11.9024
  30   2.0000      -0.431771       -11.7491
  31   2.0000      -0.337773        -9.1913
  32   0.0000       0.175693         4.7809
  33   0.0000       0.202700         5.5158
  34   0.0000       0.206690         5.6243
  35   0.0000       0.213057         5.7976
  36   0.0000       0.239660         6.5215

MULLIKEN ATOMIC CHARGES
-----------------------
   0 C :   -0.058968
   1 C :    0.022939
   2 C :   -0.015725
   3 N :   -0.515782
   4 C :    0.127265
   5 C :   -0.020550
   6 C :   -0.003804
   7 C :    0.122016
   8 H :    0.016141
   9 H :    0.004021
  10 H :    0.025266
  11 H :    0.028497
  12 H :    0.019654
  13 H :    0.020439
  14 H :    0.029787
  15 H :    0.021998
  16 H :    0.025739
  17 H :    0.004915
  18 H :    0.031574
  19 H :    0.028014
  20 H :    0.030126
  21 H :    0.027652
  22 H :    0.028784
Sum of atomic charges:    0.0000000

LOEWDIN ATOMIC CHARGES
----------------------
   0 C :   -0.035213
   1 C :   -0.025052
   2 C :   -0.020040
   3 N :   -0.036009
   4 C :   -0.008371
   5 C :   -0.032124
   6 C :   -0.058239
   7 C :   -0.020920
   8 H :    0.017353
   9 H :   -0.004192
  10 H :    0.017842
  11 H :    0.020594
  12 H :    0.017953
  13 H :    0.019378
  14 H :    0.019366
  15 H :    0.014771
  16 H :    0.019958
  17 H :   -0.001906
  18 H :    0.018199
  19 H :    0.017990
  20 H :    0.020090
  21 H :    0.022232
  22 H :    0.016340

  Mayer bond orders larger than 0.1
B(  0-C ,  1-C ) :   1.0414 B(  0-C ,  5-C ) :   1.0478 B(  0-C , 15-H ) :   0.9648
B(  0-C , 16-H ) :   0.9734 B(  1-C ,  2-C ) :   1.0483 B(  1-C , 11-H ) :   0.9617
B(  1-C , 12-H ) :   0.9689 B(  2-C ,  3-N ) :   0.9832 B(  2-C ,  6-C ) :   1.0265
B(  2-C ,  8-H ) :   0.9651 B(  3-N ,  4-C ) :   0.9791 B(  3-N ,  7-C ) :   1.0132
B(  4-C ,  5-C ) :   1.0563 B(  4-C ,  9-H ) :   0.9547 B(  4-C , 10-H ) :   0.9738
B(  5-C , 13-H ) :   0.9695 B(  5-C , 14-H ) :   0.9606 B(  6-C , 20-H ) :   0.9800
B(  6-C , 21-H ) :   0.9777 B(  6-C , 22-H ) :   0.9761 B(  7-C , 17-H ) :   0.9703
B(  7-C , 18-H ) :   0.9878 B(  7-C , 19-H ) :   0.9861

E(0)                                       ...   -328.272272855
E(0)                                       ...   -328.272272855
E(CORR)(strong-pairs)                      ...     -1.266906863
E(CORR)(weak-pairs)                        ...     -0.000604448
E(CORR)(corrected)                         ...     -1.267511312
E(TOT)                                     ...   -329.539784166
E(CCSD(T))                                 ...   -329.578890536
FINAL SINGLE POINT ENERGY      -329.578890536176

DIPOLE MOMENT
-------------
                                X             Y             Z
Electronic contribution:     -0.78006      -1.08384      -1.87456
Nuclear contribution   :      0.81493       1.16962       2.05003
                        -----------------------------------------
Total Dipole Moment    :      0.03487       0.08579       0.17546
                        -----------------------------------------
Magnitude (a.u.)       :      0.19840
Magnitude (Debye)      :      0.50430

Rotational constants in cm-1:     0.089566     0.065693     0.046982
Rotational constants in MHz :  2685.130613  1969.429076  1408.471335

                             ****ORCA TERMINATED NORMALLY****
TOTAL RUN TIME: 0 days 0 hours 4 minutes 34 seconds 704 msec
