                         Program Version 4.1.x  -  STABLE  -
|  1> ! RHF DLPNO-CCSD(T) cc-pVDZ RIJK cc-pVTZ/JK cc-pVDZ/C
|  2> ! KDIIS SOSCF TightSCF TightPNO
|  3>
|  4> %pal nprocs 4 end
|  5>
|  6> %maxcore 8000
|  7>
|  8> %scf maxiter 300
|  9>      shift shift 0.2 erroff 0.1 end
| 10> end
| 11>
| 12> * xyzfile 0 1 N_3_dimethylpiperidine_eq_eq.xyz
| 13>
| 14>
| 15>                          ****END OF INPUT****

CARTESIAN COORDINATES (ANGSTROEM)
---------------------------------
  C      1.240520    1.145870    0.180090
  C      1.261580   -0.299970   -0.343890
  C     -0.012290   -1.032790    0.103170
  N     -1.226770   -0.328790   -0.310970
  C     -1.281440    1.024350    0.244060
  C     -0.069790    1.850640   -0.195160
  C     -2.425730   -1.090850    0.007420
  C      2.519870   -1.056700    0.096800
  H     -0.034780   -2.037950   -0.335050
  H     -1.324580    0.994910    1.354750
  H     -2.208090    1.498350   -0.099530
  H      1.241890   -0.262660   -1.442570
  H     -0.119270    2.844160    0.267000
  H     -0.115050    1.993880   -1.282270
  H      1.345730    1.129380    1.275800
  H      2.102730    1.702010   -0.209470
  H     -2.560570   -1.248970    1.096580
  H     -3.309530   -0.566730   -0.370800
  H     -2.380430   -2.072860   -0.474680
  H      0.014390   -1.163670    1.207820
  H      2.575140   -1.131350    1.190010
  H      2.537600   -2.075070   -0.308900
  H      3.425930   -0.545220   -0.246880

 Total Charge           Charge          ....    0
 Multiplicity           Mult            ....    1
 Number of Electrons    NEL             ....   64
 Basis Dimension        Dim             ....  187

ORBITAL ENERGIES
----------------

  NO   OCC          E(Eh)            E(eV)
   0   2.0000     -15.540750      -422.8853
   1   2.0000     -11.246608      -306.0358
   2   2.0000     -11.245490      -306.0053
   3   2.0000     -11.245311      -306.0005
   4   2.0000     -11.224175      -305.4253
   5   2.0000     -11.220286      -305.3195
   6   2.0000     -11.219699      -305.3035
   7   2.0000     -11.218845      -305.2803
   8   2.0000      -1.225725       -33.3537
   9   2.0000      -1.080515       -29.4023
  10   2.0000      -1.025807       -27.9136
  11   2.0000      -0.934182       -25.4204
  12   2.0000      -0.922464       -25.1015
  13   2.0000      -0.835333       -22.7306
  14   2.0000      -0.805672       -21.9234
  15   2.0000      -0.748139       -20.3579
  16   2.0000      -0.649721       -17.6798
  17   2.0000      -0.628377       -17.0990
  18   2.0000      -0.612175       -16.6581
  19   2.0000      -0.603755       -16.4290
  20   2.0000      -0.591790       -16.1034
  21   2.0000      -0.547586       -14.9006
  22   2.0000      -0.543369       -14.7858
  23   2.0000      -0.533857       -14.5270
  24   2.0000      -0.524826       -14.2812
  25   2.0000      -0.514318       -13.9953
  26   2.0000      -0.486607       -13.2412
  27   2.0000      -0.473885       -12.8951
  28   2.0000      -0.454716       -12.3734
  29   2.0000      -0.436742       -11.8844
  30   2.0000      -0.432546       -11.7702
  31   2.0000      -0.346502        -9.4288
  32   0.0000       0.181484         4.9384
  33   0.0000       0.197331         5.3697
  34   0.0000       0.203580         5.5397
  35   0.0000       0.208821         5.6823
  36   0.0000       0.237447         6.4613

MULLIKEN ATOMIC CHARGES
-----------------------
   0 C :   -0.020544
   1 C :   -0.206398
   2 C :    0.184335
   3 N :   -0.516086
   4 C :    0.114493
   5 C :   -0.008074
   6 C :    0.115458
   7 C :    0.019772
   8 H :    0.024802
   9 H :    0.000437
  10 H :    0.026231
  11 H :    0.022579
  12 H :    0.022464
  13 H :    0.031185
  14 H :    0.018358
  15 H :    0.024836
  16 H :    0.001776
  17 H :    0.031059
  18 H :    0.031270
  19 H :   -0.002314
  20 H :    0.026430
  21 H :    0.028625
  22 H :    0.029307
Sum of atomic charges:   -0.0000000

LOEWDIN ATOMIC CHARGES
----------------------
   0 C :   -0.028299
   1 C :   -0.044055
   2 C :   -0.002218
   3 N :   -0.038643
   4 C :   -0.007446
   5 C :   -0.031656
   6 C :   -0.019083
   7 C :   -0.043190
   8 H :    0.016285
   9 H :   -0.004200
  10 H :    0.017177
  11 H :    0.019093
  12 H :    0.020698
  13 H :    0.020142
  14 H :    0.014821
  15 H :    0.018501
  16 H :   -0.001096
  17 H :    0.018121
  18 H :    0.018116
  19 H :   -0.004794
  20 H :    0.018908
  21 H :    0.020858
  22 H :    0.021958

  Mayer bond orders larger than 0.1
B(  0-C ,  1-C ) :   1.0206 B(  0-C ,  5-C ) :   1.0570 B(  0-C , 14-H ) :   0.9597
B(  0-C , 15-H ) :   0.9702 B(  1-C ,  2-C ) :   1.0267 B(  1-C ,  7-C ) :   1.0636
B(  1-C , 11-H ) :   0.9497 B(  2-C ,  3-N ) :   0.9870 B(  2-C ,  8-H ) :   0.9690
B(  2-C , 19-H ) :   0.9499 B(  3-N ,  4-C ) :   0.9847 B(  3-N ,  6-C ) :   1.0131
B(  4-C ,  5-C ) :   1.0585 B(  4-C ,  9-H ) :   0.9532 B(  4-C , 10-H ) :   0.9736
B(  5-C , 12-H ) :   0.9681 B(  5-C , 13-H ) :   0.9581 B(  6-C , 16-H ) :   0.9701
B(  6-C , 17-H ) :   0.9876 B(  6-C , 18-H ) :   0.9875 B(  7-C , 20-H ) :   0.9745
B(  7-C , 21-H ) :   0.9801 B(  7-C , 22-H ) :   0.9795

E(0)                                       ...   -328.277634007
E(0)                                       ...   -328.277634007
E(CORR)(strong-pairs)                      ...     -1.265808002
E(CORR)(weak-pairs)                        ...     -0.000649942
E(CORR)(corrected)                         ...     -1.266457944
E(TOT)                                     ...   -329.544091951
E(CCSD(T))                                 ...   -329.583040400
FINAL SINGLE POINT ENERGY      -329.583040400318

DIPOLE MOMENT
-------------
                                X             Y             Z
Electronic contribution:     -1.25094       1.00686      -1.54682
Nuclear contribution   :      1.25703      -1.00201       1.72006
                        -----------------------------------------
Total Dipole Moment    :      0.00609       0.00485       0.17324
                        -----------------------------------------
Magnitude (a.u.)       :      0.17341
Magnitude (Debye)      :      0.44078

Rotational constants in cm-1:     0.101133     0.055274     0.038458
Rotational constants in MHz :  3031.879485  1657.079268  1152.953044

                             ****ORCA TERMINATED NORMALLY****
TOTAL RUN TIME: 0 days 0 hours 5 minutes 21 seconds 867 msec
