                         Program Version 4.1.x  -  STABLE  -
|  1> ! RHF DLPNO-CCSD(T) cc-pVDZ RIJK cc-pVTZ/JK cc-pVDZ/C
|  2> ! KDIIS SOSCF TightSCF TightPNO
|  3>
|  4> %pal nprocs 4 end
|  5>
|  6> %maxcore 8000
|  7>
|  8> %scf maxiter 300
|  9>      shift shift 0.2 erroff 0.1 end
| 10> end
| 11>
| 12> * xyzfile 0 1 N_3_dimethylpiperidine_eq_ax.xyz
| 13>
| 14>
| 15>                          ****END OF INPUT****

CARTESIAN COORDINATES (ANGSTROEM)
---------------------------------
  C      1.462010    0.894060    0.548090
  C      1.239470   -0.631820    0.479750
  C     -0.253770   -0.935710    0.700080
  N     -1.107400   -0.221550   -0.251890
  C     -0.950380    1.228320   -0.124230
  C      0.499350    1.651590   -0.378800
  C     -2.500840   -0.624940   -0.131850
  C      1.768300   -1.255080   -0.822140
  H     -0.436960   -2.010560    0.582710
  H     -1.262800    1.570640    0.887040
  H     -1.619300    1.711580   -0.845670
  H      1.784430   -1.091210    1.316380
  H      0.594640    2.733230   -0.223570
  H      0.747960    1.455530   -1.428540
  H      1.294520    1.228730    1.581860
  H      2.503530    1.137510    0.303880
  H     -2.934270   -0.387100    0.860760
  H     -3.101190   -0.117440   -0.894080
  H     -2.590330   -1.704470   -0.290940
  H     -0.528090   -0.673150    1.744880
  H      1.219520   -0.890270   -1.694800
  H      2.830890   -1.024420   -0.961550
  H      1.664350   -2.346210   -0.800550

 Total Charge           Charge          ....    0
 Multiplicity           Mult            ....    1
 Number of Electrons    NEL             ....   64
 Basis Dimension        Dim             ....  187

ORBITAL ENERGIES
----------------

  NO   OCC          E(Eh)            E(eV)
   0   2.0000     -15.541327      -422.9010
   1   2.0000     -11.246948      -306.0450
   2   2.0000     -11.245834      -306.0147
   3   2.0000     -11.245647      -306.0096
   4   2.0000     -11.225139      -305.4516
   5   2.0000     -11.220292      -305.3197
   6   2.0000     -11.219600      -305.3008
   7   2.0000     -11.211620      -305.0837
   8   2.0000      -1.226193       -33.3664
   9   2.0000      -1.077818       -29.3289
  10   2.0000      -1.022736       -27.8301
  11   2.0000      -0.932540       -25.3757
  12   2.0000      -0.922025       -25.0896
  13   2.0000      -0.835117       -22.7247
  14   2.0000      -0.817332       -22.2407
  15   2.0000      -0.725509       -19.7421
  16   2.0000      -0.655694       -17.8423
  17   2.0000      -0.627862       -17.0850
  18   2.0000      -0.616128       -16.7657
  19   2.0000      -0.605836       -16.4856
  20   2.0000      -0.577366       -15.7109
  21   2.0000      -0.561724       -15.2853
  22   2.0000      -0.544215       -14.8088
  23   2.0000      -0.536976       -14.6119
  24   2.0000      -0.519364       -14.1326
  25   2.0000      -0.500752       -13.6262
  26   2.0000      -0.490096       -13.3362
  27   2.0000      -0.474547       -12.9131
  28   2.0000      -0.452286       -12.3073
  29   2.0000      -0.433728       -11.8023
  30   2.0000      -0.432054       -11.7568
  31   2.0000      -0.346227        -9.4213
  32   0.0000       0.176230         4.7955
  33   0.0000       0.201953         5.4954
  34   0.0000       0.207464         5.6454
  35   0.0000       0.213721         5.8156
  36   0.0000       0.238179         6.4812

MULLIKEN ATOMIC CHARGES
-----------------------
   0 C :   -0.014094
   1 C :   -0.183886
   2 C :    0.166758
   3 N :   -0.510027
   4 C :    0.114742
   5 C :   -0.019066
   6 C :    0.115516
   7 C :    0.014728
   8 H :    0.022730
   9 H :   -0.000312
  10 H :    0.025796
  11 H :    0.011102
  12 H :    0.023270
  13 H :    0.033462
  14 H :    0.020476
  15 H :    0.023017
  16 H :    0.001299
  17 H :    0.031137
  18 H :    0.031651
  19 H :    0.003447
  20 H :    0.040333
  21 H :    0.023507
  22 H :    0.024415
Sum of atomic charges:   -0.0000000

LOEWDIN ATOMIC CHARGES
----------------------
   0 C :   -0.027170
   1 C :   -0.042594
   2 C :   -0.001452
   3 N :   -0.038435
   4 C :   -0.007170
   5 C :   -0.032962
   6 C :   -0.019387
   7 C :   -0.044864
   8 H :    0.015422
   9 H :   -0.004214
  10 H :    0.016919
  11 H :    0.019515
  12 H :    0.020969
  13 H :    0.019531
  14 H :    0.016944
  15 H :    0.017713
  16 H :   -0.001109
  17 H :    0.018046
  18 H :    0.018220
  19 H :   -0.002584
  20 H :    0.020547
  21 H :    0.018425
  22 H :    0.019692

  Mayer bond orders larger than 0.1
B(  0-C ,  1-C ) :   1.0405 B(  0-C ,  5-C ) :   1.0413 B(  0-C , 14-H ) :   0.9647
B(  0-C , 15-H ) :   0.9715 B(  1-C ,  2-C ) :   1.0382 B(  1-C ,  7-C ) :   1.0310
B(  1-C , 11-H ) :   0.9612 B(  2-C ,  3-N ) :   0.9771 B(  2-C ,  8-H ) :   0.9708
B(  2-C , 19-H ) :   0.9571 B(  3-N ,  4-C ) :   0.9845 B(  3-N ,  6-C ) :   1.0146
B(  4-C ,  5-C ) :   1.0561 B(  4-C ,  9-H ) :   0.9538 B(  4-C , 10-H ) :   0.9737
B(  5-C , 12-H ) :   0.9696 B(  5-C , 13-H ) :   0.9622 B(  6-C , 16-H ) :   0.9700
B(  6-C , 17-H ) :   0.9876 B(  6-C , 18-H ) :   0.9874 B(  7-C , 20-H ) :   0.9764
B(  7-C , 21-H ) :   0.9811 B(  7-C , 22-H ) :   0.9815

E(0)                                       ...   -328.275178726
E(0)                                       ...   -328.275178726
E(CORR)(strong-pairs)                      ...     -1.266776491
E(CORR)(weak-pairs)                        ...     -0.000591867
E(CORR)(corrected)                         ...     -1.267368359
E(TOT)                                     ...   -329.542547085
E(CCSD(T))                                 ...   -329.581601977
FINAL SINGLE POINT ENERGY      -329.581601977462

DIPOLE MOMENT
-------------
                                X             Y             Z
Electronic contribution:     -0.23494       0.50472       0.04996
Nuclear contribution   :      0.17032      -0.43418       0.14476
                        -----------------------------------------
Total Dipole Moment    :     -0.06462       0.07054       0.19472
                        -----------------------------------------
Magnitude (a.u.)       :      0.21695
Magnitude (Debye)      :      0.55143

Rotational constants in cm-1:     0.096261     0.059389     0.044687
Rotational constants in MHz :  2885.841657  1780.433624  1339.669292

                             ****ORCA TERMINATED NORMALLY****
TOTAL RUN TIME: 0 days 0 hours 4 minutes 49 seconds 956 msec
