                         Program Version 4.1.x  -  STABLE  -
|  1> ! RHF DLPNO-CCSD(T) cc-pVDZ RIJK cc-pVTZ/JK cc-pVDZ/C
|  2> ! KDIIS SOSCF TightSCF TightPNO
|  3>
|  4> %pal nprocs 4 end
|  5>
|  6> %maxcore 8000
|  7>
|  8> %scf maxiter 300
|  9>      shift shift 0.2 erroff 0.1 end
| 10> end
| 11>
| 12> * xyzfile 0 1 N_4_dimethylpiperidine_eq_eq.xyz
| 13>
| 14>
| 15>                          ****END OF INPUT****

CARTESIAN COORDINATES (ANGSTROEM)
---------------------------------
  C     -1.459170    0.000010    0.325960
  C     -0.715430    1.252360   -0.166970
  C      0.771020    1.209470    0.198920
  N      1.411680   -0.000010   -0.318970
  C      0.770980   -1.209470    0.198930
  C     -0.715460   -1.252330   -0.166980
  C      2.846600   -0.000020   -0.075490
  C     -2.933090   -0.000000   -0.094410
  H      1.288300    2.078640   -0.223580
  H      0.881030   -1.273720    1.303470
  H      1.288250   -2.078660   -0.223540
  H     -0.810150    1.324450   -1.259040
  H     -1.168630   -2.156670    0.259280
  H     -0.810160   -1.324440   -1.259050
  H     -1.418430    0.000020    1.427140
  H      3.102330    0.000000    1.003430
  H      3.300070   -0.886360   -0.531040
  H      3.300090    0.886300   -0.531070
  H      0.881080    1.273750    1.303450
  H     -1.168570    2.156720    0.259280
  H     -3.029000   -0.000020   -1.187380
  H     -3.455330   -0.885710    0.285880
  H     -3.455340    0.885710    0.285850

 Total Charge           Charge          ....    0
 Multiplicity           Mult            ....    1
 Number of Electrons    NEL             ....   64
 Basis Dimension        Dim             ....  187

ORBITAL ENERGIES
----------------

  NO   OCC          E(Eh)            E(eV)
   0   2.0000     -15.540541      -422.8796
   1   2.0000     -11.246899      -306.0437
   2   2.0000     -11.246883      -306.0432
   3   2.0000     -11.245467      -306.0047
   4   2.0000     -11.225842      -305.4707
   5   2.0000     -11.218628      -305.2744
   6   2.0000     -11.218593      -305.2734
   7   2.0000     -11.217771      -305.2511
   8   2.0000      -1.225666       -33.3521
   9   2.0000      -1.084953       -29.5231
  10   2.0000      -1.009566       -27.4717
  11   2.0000      -0.967121       -26.3167
  12   2.0000      -0.894098       -24.3296
  13   2.0000      -0.845888       -23.0178
  14   2.0000      -0.803729       -21.8706
  15   2.0000      -0.747340       -20.3361
  16   2.0000      -0.646254       -17.5855
  17   2.0000      -0.619758       -16.8645
  18   2.0000      -0.619145       -16.8478
  19   2.0000      -0.607756       -16.5379
  20   2.0000      -0.591062       -16.0836
  21   2.0000      -0.557045       -15.1580
  22   2.0000      -0.540707       -14.7134
  23   2.0000      -0.529053       -14.3963
  24   2.0000      -0.521838       -14.1999
  25   2.0000      -0.511257       -13.9120
  26   2.0000      -0.485928       -13.2228
  27   2.0000      -0.482655       -13.1337
  28   2.0000      -0.452812       -12.3216
  29   2.0000      -0.435269       -11.8443
  30   2.0000      -0.432008       -11.7555
  31   2.0000      -0.346450        -9.4274
  32   0.0000       0.183957         5.0057
  33   0.0000       0.190785         5.1915
  34   0.0000       0.206683         5.6241
  35   0.0000       0.212010         5.7691
  36   0.0000       0.232578         6.3288

MULLIKEN ATOMIC CHARGES
-----------------------
   0 C :   -0.242262
   1 C :    0.019948
   2 C :    0.128647
   3 N :   -0.516470
   4 C :    0.128646
   5 C :    0.019954
   6 C :    0.117557
   7 C :    0.030388
   8 H :    0.027113
   9 H :    0.000213
  10 H :    0.027113
  11 H :    0.028616
  12 H :    0.021339
  13 H :    0.028617
  14 H :    0.012968
  15 H :    0.001407
  16 H :    0.031223
  17 H :    0.031223
  18 H :    0.000213
  19 H :    0.021339
  20 H :    0.026738
  21 H :    0.027736
  22 H :    0.027735
Sum of atomic charges:   -0.0000000

LOEWDIN ATOMIC CHARGES
----------------------
   0 C :   -0.046316
   1 C :   -0.026575
   2 C :   -0.006498
   3 N :   -0.039496
   4 C :   -0.006496
   5 C :   -0.026576
   6 C :   -0.019583
   7 C :   -0.043218
   8 H :    0.017520
   9 H :   -0.003973
  10 H :    0.017519
  11 H :    0.018931
  12 H :    0.019453
  13 H :    0.018933
  14 H :    0.014886
  15 H :   -0.001152
  16 H :    0.018172
  17 H :    0.018173
  18 H :   -0.003974
  19 H :    0.019452
  20 H :    0.019605
  21 H :    0.020608
  22 H :    0.020606

  Mayer bond orders larger than 0.1
B(  0-C ,  1-C ) :   1.0239 B(  0-C ,  5-C ) :   1.0239 B(  0-C ,  7-C ) :   1.0648
B(  0-C , 14-H ) :   0.9514 B(  1-C ,  2-C ) :   1.0676 B(  1-C , 11-H ) :   0.9552
B(  1-C , 19-H ) :   0.9651 B(  2-C ,  3-N ) :   0.9850 B(  2-C ,  8-H ) :   0.9719
B(  2-C , 18-H ) :   0.9517 B(  3-N ,  4-C ) :   0.9850 B(  3-N ,  6-C ) :   1.0120
B(  4-C ,  5-C ) :   1.0676 B(  4-C ,  9-H ) :   0.9517 B(  4-C , 10-H ) :   0.9719
B(  5-C , 12-H ) :   0.9651 B(  5-C , 13-H ) :   0.9552 B(  6-C , 15-H ) :   0.9700
B(  6-C , 16-H ) :   0.9874 B(  6-C , 17-H ) :   0.9874 B(  7-C , 20-H ) :   0.9750
B(  7-C , 21-H ) :   0.9792 B(  7-C , 22-H ) :   0.9792

E(0)                                       ...   -328.277956290
E(0)                                       ...   -328.277956290
E(CORR)(strong-pairs)                      ...     -1.265743419
E(CORR)(weak-pairs)                        ...     -0.000606388
E(CORR)(corrected)                         ...     -1.266349807
E(TOT)                                     ...   -329.544306097
E(CCSD(T))                                 ...   -329.583238586
FINAL SINGLE POINT ENERGY      -329.583238586218

DIPOLE MOMENT
-------------
                                X             Y             Z
Electronic contribution:      1.35958      -0.00000      -0.74830
Nuclear contribution   :     -1.34439      -0.00000       0.96748
                        -----------------------------------------
Total Dipole Moment    :      0.01520      -0.00001       0.21918
                        -----------------------------------------
Magnitude (a.u.)       :      0.21971
Magnitude (Debye)      :      0.55845

Rotational constants in cm-1:     0.143556     0.045163     0.036840
Rotational constants in MHz :  4303.709413  1353.940125  1104.443183

                             ****ORCA TERMINATED NORMALLY****
TOTAL RUN TIME: 0 days 0 hours 5 minutes 4 seconds 532 msec
