                         Program Version 4.1.x  -  STABLE  -
|  1> ! RHF DLPNO-CCSD(T) cc-pVDZ RIJK cc-pVTZ/JK cc-pVDZ/C
|  2> ! KDIIS SOSCF TightSCF TightPNO
|  3>
|  4> %pal nprocs 4 end
|  5>
|  6> %maxcore 8000
|  7>
|  8> %scf maxiter 300
|  9>      shift shift 0.2 erroff 0.1 end
| 10> end
| 11>
| 12> * xyzfile 0 1 N_4_dimethylpiperidine_eq_ax.xyz
| 13>
| 14>
| 15>                          ****END OF INPUT****

CARTESIAN COORDINATES (ANGSTROEM)
---------------------------------
  C     -1.600730    0.000010   -0.379420
  C     -0.739760    1.255440   -0.637680
  C      0.605370    1.209240    0.095500
  N      1.354350    0.000000   -0.251670
  C      0.605350   -1.209230    0.095460
  C     -0.739780   -1.255380   -0.637720
  C      2.683380   -0.000030    0.341730
  C     -2.247010   -0.000040    1.016860
  H      1.209460    2.078660   -0.188920
  H      0.448780   -1.277030    1.192600
  H      1.209430   -2.078660   -0.188970
  H     -0.538260    1.336400   -1.713160
  H     -1.285640   -2.159980   -0.340500
  H     -0.538270   -1.336310   -1.713200
  H     -2.419510    0.000040   -1.112040
  H      2.661410   -0.000040    1.450460
  H      3.236100   -0.886540    0.013890
  H      3.236150    0.886470    0.013920
  H      0.448810    1.277010    1.192650
  H     -1.285610    2.160030   -0.340420
  H     -1.505760   -0.000060    1.822560
  H     -2.879220    0.885270    1.152250
  H     -2.879220   -0.885350    1.152190

 Total Charge           Charge          ....    0
 Multiplicity           Mult            ....    1
 Number of Electrons    NEL             ....   64
 Basis Dimension        Dim             ....  187

ORBITAL ENERGIES
----------------

  NO   OCC          E(Eh)            E(eV)
   0   2.0000     -15.540037      -422.8659
   1   2.0000     -11.246158      -306.0235
   2   2.0000     -11.246143      -306.0231
   3   2.0000     -11.245100      -305.9947
   4   2.0000     -11.226697      -305.4939
   5   2.0000     -11.218832      -305.2799
   6   2.0000     -11.218799      -305.2790
   7   2.0000     -11.217158      -305.2344
   8   2.0000      -1.224992       -33.3337
   9   2.0000      -1.082446       -29.4549
  10   2.0000      -1.008997       -27.4562
  11   2.0000      -0.961969       -26.1765
  12   2.0000      -0.899998       -24.4902
  13   2.0000      -0.844519       -22.9805
  14   2.0000      -0.813800       -22.1446
  15   2.0000      -0.723685       -19.6925
  16   2.0000      -0.658269       -17.9124
  17   2.0000      -0.621232       -16.9046
  18   2.0000      -0.620267       -16.8783
  19   2.0000      -0.599386       -16.3101
  20   2.0000      -0.594720       -16.1832
  21   2.0000      -0.563161       -15.3244
  22   2.0000      -0.535492       -14.5715
  23   2.0000      -0.529888       -14.4190
  24   2.0000      -0.524578       -14.2745
  25   2.0000      -0.504851       -13.7377
  26   2.0000      -0.490990       -13.3605
  27   2.0000      -0.480198       -13.0669
  28   2.0000      -0.450414       -12.2564
  29   2.0000      -0.433623       -11.7995
  30   2.0000      -0.431154       -11.7323
  31   2.0000      -0.345612        -9.4046
  32   0.0000       0.175994         4.7890
  33   0.0000       0.194432         5.2908
  34   0.0000       0.209782         5.7085
  35   0.0000       0.217255         5.9118
  36   0.0000       0.242820         6.6075

MULLIKEN ATOMIC CHARGES
-----------------------
   0 C :   -0.218812
   1 C :    0.025921
   2 C :    0.116729
   3 N :   -0.512867
   4 C :    0.116728
   5 C :    0.025930
   6 C :    0.116061
   7 C :    0.010447
   8 H :    0.026768
   9 H :    0.002540
  10 H :    0.026768
  11 H :    0.030507
  12 H :    0.019018
  13 H :    0.030504
  14 H :    0.013720
  15 H :    0.000679
  16 H :    0.031027
  17 H :    0.031028
  18 H :    0.002543
  19 H :    0.019020
  20 H :    0.029507
  21 H :    0.028116
  22 H :    0.028118
Sum of atomic charges:    0.0000000

LOEWDIN ATOMIC CHARGES
----------------------
   0 C :   -0.042771
   1 C :   -0.025992
   2 C :   -0.008119
   3 N :   -0.039277
   4 C :   -0.008121
   5 C :   -0.025996
   6 C :   -0.019929
   7 C :   -0.047614
   8 H :    0.017714
   9 H :   -0.004021
  10 H :    0.017715
  11 H :    0.021223
  12 H :    0.018520
  13 H :    0.021223
  14 H :    0.019140
  15 H :   -0.001640
  16 H :    0.018063
  17 H :    0.018064
  18 H :   -0.004019
  19 H :    0.018519
  20 H :    0.015929
  21 H :    0.020695
  22 H :    0.020695

  Mayer bond orders larger than 0.1
B(  0-C ,  1-C ) :   1.0376 B(  0-C ,  5-C ) :   1.0376 B(  0-C ,  7-C ) :   1.0338
B(  0-C , 14-H ) :   0.9646 B(  1-C ,  2-C ) :   1.0523 B(  1-C , 11-H ) :   0.9606
B(  1-C , 19-H ) :   0.9671 B(  2-C ,  3-N ) :   0.9824 B(  2-C ,  8-H ) :   0.9735
B(  2-C , 18-H ) :   0.9546 B(  3-N ,  4-C ) :   0.9824 B(  3-N ,  6-C ) :   1.0136
B(  4-C ,  5-C ) :   1.0523 B(  4-C ,  9-H ) :   0.9546 B(  4-C , 10-H ) :   0.9735
B(  5-C , 12-H ) :   0.9671 B(  5-C , 13-H ) :   0.9606 B(  6-C , 15-H ) :   0.9698
B(  6-C , 16-H ) :   0.9876 B(  6-C , 17-H ) :   0.9876 B(  7-C , 20-H ) :   0.9777
B(  7-C , 21-H ) :   0.9811 B(  7-C , 22-H ) :   0.9811

E(0)                                       ...   -328.273874205
E(0)                                       ...   -328.273874205
E(CORR)(strong-pairs)                      ...     -1.266588160
E(CORR)(weak-pairs)                        ...     -0.000664472
E(CORR)(corrected)                         ...     -1.267252632
E(TOT)                                     ...   -329.541126837
E(CCSD(T))                                 ...   -329.580153529
FINAL SINGLE POINT ENERGY      -329.580153528566

DIPOLE MOMENT
-------------
                                X             Y             Z
Electronic contribution:      0.87183       0.00009      -2.35792
Nuclear contribution   :     -0.92736      -0.00009       2.53958
                        -----------------------------------------
Total Dipole Moment    :     -0.05553       0.00000       0.18166
                        -----------------------------------------
Magnitude (a.u.)       :      0.18995
Magnitude (Debye)      :      0.48283

Rotational constants in cm-1:     0.115453     0.050957     0.043546
Rotational constants in MHz :  3461.208328  1527.647131  1305.485233

                             ****ORCA TERMINATED NORMALLY****
TOTAL RUN TIME: 0 days 0 hours 4 minutes 13 seconds 436 msec
