                         Program Version 4.1.x  -  STABLE  -
|  1> ! RHF DLPNO-CCSD(T) cc-pVDZ RIJK cc-pVTZ/JK cc-pVDZ/C
|  2> ! KDIIS SOSCF TightSCF TightPNO
|  3>
|  4> %pal nprocs 4 end
|  5>
|  6> %maxcore 8000
|  7>
|  8> %scf maxiter 300
|  9>      shift shift 0.2 erroff 0.1 end
| 10> end
| 11>
| 12> * xyzfile 0 1 N_Ac_Ala_N_Me_g_g_plus.xyz
| 13>
| 14>
| 15>                          ****END OF INPUT****

CARTESIAN COORDINATES (ANGSTROEM)
---------------------------------
  C     -3.163530   -0.750980   -0.617650
  C     -1.829020   -0.367280   -0.004690
  N     -1.141830    0.623430   -0.635310
  C      0.119470    1.250740   -0.192860
  C      0.021620    1.848320    1.220470
  O     -1.409450   -0.935830    1.010160
  C      1.373980    0.358150   -0.357580
  N      1.339900   -0.858470    0.230560
  C      2.479020   -1.761690    0.165750
  O      2.352340    0.790430   -0.970530
  H     -3.394890   -0.219400   -1.544730
  H     -3.951400   -0.547340    0.113590
  H     -3.164380   -1.827170   -0.809670
  H      0.294410    2.063520   -0.900380
  H     -1.535600    0.981180   -1.492910
  H      0.493070   -1.128470    0.726500
  H      2.206050   -2.700790    0.650680
  H      3.350970   -1.334820    0.672700
  H      2.759670   -1.959890   -0.873410
  H     -0.786780    2.585430    1.259520
  H     -0.171140    1.079180    1.970160
  H      0.961230    2.353510    1.463580

 Total Charge           Charge          ....    0
 Multiplicity           Mult            ....    1
 Number of Electrons    NEL             ....   78
 Basis Dimension        Dim             ....  200

ORBITAL ENERGIES
----------------

  NO   OCC          E(Eh)            E(eV)
   0   2.0000     -20.533514      -558.7453
   1   2.0000     -20.506330      -558.0056
   2   2.0000     -15.607561      -424.7033
   3   2.0000     -15.566860      -423.5958
   4   2.0000     -11.375644      -309.5470
   5   2.0000     -11.340251      -308.5839
   6   2.0000     -11.292426      -307.2825
   7   2.0000     -11.258734      -306.3657
   8   2.0000     -11.256485      -306.3045
   9   2.0000     -11.233543      -305.6802
  10   2.0000      -1.391222       -37.8571
  11   2.0000      -1.361019       -37.0352
  12   2.0000      -1.246330       -33.9144
  13   2.0000      -1.209776       -32.9197
  14   2.0000      -1.057318       -28.7711
  15   2.0000      -1.000362       -27.2212
  16   2.0000      -0.943922       -25.6854
  17   2.0000      -0.884695       -24.0738
  18   2.0000      -0.804281       -21.8856
  19   2.0000      -0.761833       -20.7305
  20   2.0000      -0.717869       -19.5342
  21   2.0000      -0.701701       -19.0943
  22   2.0000      -0.647906       -17.6304
  23   2.0000      -0.627861       -17.0850
  24   2.0000      -0.618036       -16.8176
  25   2.0000      -0.607831       -16.5399
  26   2.0000      -0.596730       -16.2378
  27   2.0000      -0.583109       -15.8672
  28   2.0000      -0.575109       -15.6495
  29   2.0000      -0.563208       -15.3257
  30   2.0000      -0.542915       -14.7735
  31   2.0000      -0.536445       -14.5974
  32   2.0000      -0.520511       -14.1638
  33   2.0000      -0.513220       -13.9654
  34   2.0000      -0.493652       -13.4330
  35   2.0000      -0.437061       -11.8930
  36   2.0000      -0.427909       -11.6440
  37   2.0000      -0.386200       -10.5090
  38   2.0000      -0.371409       -10.1065
  39   0.0000       0.154314         4.1991
  40   0.0000       0.164996         4.4898
  41   0.0000       0.190892         5.1944
  42   0.0000       0.199799         5.4368
  43   0.0000       0.207570         5.6483

MULLIKEN ATOMIC CHARGES
-----------------------
   0 C :   -0.003998
   1 C :    0.324691
   2 N :   -0.365691
   3 C :    0.039185
   4 C :   -0.008977
   5 O :   -0.471022
   6 C :    0.382279
   7 N :   -0.384950
   8 C :    0.120892
   9 O :   -0.439434
  10 H :    0.035531
  11 H :    0.077727
  12 H :    0.075501
  13 H :    0.054235
  14 H :    0.128267
  15 H :    0.163153
  16 H :    0.033287
  17 H :    0.043726
  18 H :    0.044770
  19 H :    0.034114
  20 H :    0.066035
  21 H :    0.050680
Sum of atomic charges:   -0.0000000

LOEWDIN ATOMIC CHARGES
----------------------
   0 C :   -0.049460
   1 C :   -0.017443
   2 N :    0.064333
   3 C :   -0.008040
   4 C :   -0.040651
   5 O :   -0.197069
   6 C :   -0.038910
   7 N :    0.051561
   8 C :    0.002275
   9 O :   -0.193902
  10 H :    0.024790
  11 H :    0.049187
  12 H :    0.047692
  13 H :    0.038225
  14 H :    0.062038
  15 H :    0.048838
  16 H :    0.023588
  17 H :    0.022767
  18 H :    0.023787
  19 H :    0.024027
  20 H :    0.029516
  21 H :    0.032852

  Mayer bond orders larger than 0.1
B(  0-C ,  1-C ) :   1.0236 B(  0-C , 10-H ) :   0.9778 B(  0-C , 11-H ) :   0.9636
B(  0-C , 12-H ) :   0.9660 B(  1-C ,  2-N ) :   1.2090 B(  1-C ,  5-O ) :   1.8639
B(  2-N ,  3-C ) :   0.9181 B(  2-N , 14-H ) :   0.9668 B(  3-C ,  4-C ) :   1.0419
B(  3-C ,  6-C ) :   0.9779 B(  3-C , 13-H ) :   0.9627 B(  4-C , 19-H ) :   0.9762
B(  4-C , 20-H ) :   0.9722 B(  4-C , 21-H ) :   0.9755 B(  6-C ,  7-N ) :   1.2482
B(  6-C ,  9-O ) :   1.9615 B(  7-N ,  8-C ) :   0.9749 B(  7-N , 15-H ) :   0.9234
B(  8-C , 16-H ) :   0.9866 B(  8-C , 17-H ) :   0.9838 B(  8-C , 18-H ) :   0.9836

E(0)                                       ...   -492.894434367
E(0)                                       ...   -492.894434367
E(CORR)(strong-pairs)                      ...     -1.600196097
E(CORR)(weak-pairs)                        ...     -0.001000728
E(CORR)(corrected)                         ...     -1.601196826
E(TOT)                                     ...   -494.495631193
E(CCSD(T))                                 ...   -494.546435322
FINAL SINGLE POINT ENERGY      -494.546435322002

DIPOLE MOMENT
-------------
                                X             Y             Z
Electronic contribution:      1.33387       0.70886      -1.63108
Nuclear contribution   :     -2.96972      -0.66932       1.25369
                        -----------------------------------------
Total Dipole Moment    :     -1.63585       0.03955      -0.37739
                        -----------------------------------------
Magnitude (a.u.)       :      1.67929
Magnitude (Debye)      :      4.26840

Rotational constants in cm-1:     0.064438     0.029841     0.025142
Rotational constants in MHz :  1931.793330   894.612519   753.742443

                             ****ORCA TERMINATED NORMALLY****
TOTAL RUN TIME: 0 days 0 hours 5 minutes 49 seconds 764 msec
