                         Program Version 4.1.x  -  STABLE  -
|  1> ! RHF DLPNO-CCSD(T) cc-pVDZ RIJK cc-pVTZ/JK cc-pVDZ/C
|  2> ! KDIIS SOSCF TightSCF TightPNO
|  3>
|  4> %pal nprocs 4 end
|  5>
|  6> %maxcore 8000
|  7>
|  8> %scf maxiter 300
|  9>      shift shift 0.2 erroff 0.1 end
| 10> end
| 11>
| 12> * xyzfile 0 1 N_Ac_Ala_N_Me_g_plus_g_.xyz
| 13>
| 14>
| 15>                          ****END OF INPUT****

CARTESIAN COORDINATES (ANGSTROEM)
---------------------------------
  C     -3.119640   -0.623060    0.745660
  C     -1.857220   -0.405970   -0.065650
  N     -1.106110    0.682020    0.258150
  C      0.117290    1.056440   -0.463750
  C      0.352900    2.559100   -0.357290
  O     -1.534790   -1.176290   -0.977130
  C      1.328210    0.251270    0.076210
  N      1.359210   -1.042410   -0.331910
  C      2.367050   -1.973760    0.151900
  O      2.177020    0.759040    0.808060
  H     -3.975600   -0.617050    0.064840
  H     -3.276930    0.129820    1.522850
  H     -3.075050   -1.612900    1.208280
  H     -0.047910    0.770880   -1.507740
  H     -1.365130    1.238680    1.060730
  H      0.539020   -1.396620   -0.817380
  H      2.152690   -2.316590    1.171990
  H      3.342630   -1.483400    0.158070
  H      2.399980   -2.838130   -0.514760
  H      0.534550    2.854430    0.680330
  H     -0.509070    3.106070   -0.751330
  H      1.239790    2.841480   -0.929400

 Total Charge           Charge          ....    0
 Multiplicity           Mult            ....    1
 Number of Electrons    NEL             ....   78
 Basis Dimension        Dim             ....  200

ORBITAL ENERGIES
----------------

  NO   OCC          E(Eh)            E(eV)
   0   2.0000     -20.530361      -558.6595
   1   2.0000     -20.511721      -558.1523
   2   2.0000     -15.604475      -424.6194
   3   2.0000     -15.571085      -423.7108
   4   2.0000     -11.371703      -309.4398
   5   2.0000     -11.342595      -308.6477
   6   2.0000     -11.288861      -307.1855
   7   2.0000     -11.258320      -306.3545
   8   2.0000     -11.256681      -306.3099
   9   2.0000     -11.234515      -305.7067
  10   2.0000      -1.388185       -37.7744
  11   2.0000      -1.365562       -37.1588
  12   2.0000      -1.245216       -33.8841
  13   2.0000      -1.213079       -33.0096
  14   2.0000      -1.056688       -28.7540
  15   2.0000      -0.998480       -27.1700
  16   2.0000      -0.952166       -25.9098
  17   2.0000      -0.868972       -23.6459
  18   2.0000      -0.807863       -21.9831
  19   2.0000      -0.770018       -20.9532
  20   2.0000      -0.716921       -19.5084
  21   2.0000      -0.685027       -18.6405
  22   2.0000      -0.668367       -18.1872
  23   2.0000      -0.632515       -17.2116
  24   2.0000      -0.617053       -16.7909
  25   2.0000      -0.606456       -16.5025
  26   2.0000      -0.594931       -16.1889
  27   2.0000      -0.587095       -15.9757
  28   2.0000      -0.577652       -15.7187
  29   2.0000      -0.547498       -14.8982
  30   2.0000      -0.540167       -14.6987
  31   2.0000      -0.530886       -14.4462
  32   2.0000      -0.521535       -14.1917
  33   2.0000      -0.513488       -13.9727
  34   2.0000      -0.504942       -13.7402
  35   2.0000      -0.438196       -11.9239
  36   2.0000      -0.429352       -11.6833
  37   2.0000      -0.386326       -10.5125
  38   2.0000      -0.375024       -10.2049
  39   0.0000       0.160506         4.3676
  40   0.0000       0.171821         4.6755
  41   0.0000       0.195346         5.3156
  42   0.0000       0.200984         5.4691
  43   0.0000       0.205546         5.5932

MULLIKEN ATOMIC CHARGES
-----------------------
   0 C :   -0.006789
   1 C :    0.317709
   2 N :   -0.351905
   3 C :   -0.033422
   4 C :    0.033726
   5 O :   -0.464864
   6 C :    0.409882
   7 N :   -0.384522
   8 C :    0.116032
   9 O :   -0.436639
  10 H :    0.077055
  11 H :    0.036095
  12 H :    0.075176
  13 H :    0.062929
  14 H :    0.127972
  15 H :    0.155426
  16 H :    0.035023
  17 H :    0.057894
  18 H :    0.035665
  19 H :    0.051702
  20 H :    0.033089
  21 H :    0.052764
Sum of atomic charges:   -0.0000000

LOEWDIN ATOMIC CHARGES
----------------------
   0 C :   -0.050839
   1 C :   -0.020446
   2 N :    0.068617
   3 C :   -0.013844
   4 C :   -0.037066
   5 O :   -0.201862
   6 C :   -0.038329
   7 N :    0.050263
   8 C :    0.001185
   9 O :   -0.187836
  10 H :    0.048936
  11 H :    0.025187
  12 H :    0.047564
  13 H :    0.032986
  14 H :    0.060160
  15 H :    0.055511
  16 H :    0.017503
  17 H :    0.030379
  18 H :    0.023381
  19 H :    0.029443
  20 H :    0.022605
  21 H :    0.036504

  Mayer bond orders larger than 0.1
B(  0-C ,  1-C ) :   1.0262 B(  0-C , 10-H ) :   0.9643 B(  0-C , 11-H ) :   0.9772
B(  0-C , 12-H ) :   0.9654 B(  1-C ,  2-N ) :   1.2051 B(  1-C ,  5-O ) :   1.8871
B(  2-N ,  3-C ) :   0.9211 B(  2-N , 14-H ) :   0.9619 B(  3-C ,  4-C ) :   1.0702
B(  3-C ,  6-C ) :   0.9368 B(  3-C , 13-H ) :   0.9560 B(  4-C , 19-H ) :   0.9671
B(  4-C , 20-H ) :   0.9759 B(  4-C , 21-H ) :   0.9750 B(  6-C ,  7-N ) :   1.2461
B(  6-C ,  9-O ) :   1.9723 B(  7-N ,  8-C ) :   0.9730 B(  7-N , 15-H ) :   0.9329
B(  8-C , 16-H ) :   0.9847 B(  8-C , 17-H ) :   0.9817 B(  8-C , 18-H ) :   0.9868

E(0)                                       ...   -492.899445096
E(0)                                       ...   -492.899445096
E(CORR)(strong-pairs)                      ...     -1.599733473
E(CORR)(weak-pairs)                        ...     -0.001108993
E(CORR)(corrected)                         ...     -1.600842465
E(TOT)                                     ...   -494.500287561
E(CCSD(T))                                 ...   -494.551003078
FINAL SINGLE POINT ENERGY      -494.551003078144

DIPOLE MOMENT
-------------
                                X             Y             Z
Electronic contribution:      0.79526      -0.50404      -1.05730
Nuclear contribution   :     -2.06202       0.67870       1.36495
                        -----------------------------------------
Total Dipole Moment    :     -1.26677       0.17466       0.30764
                        -----------------------------------------
Magnitude (a.u.)       :      1.31524
Magnitude (Debye)      :      3.34306

Rotational constants in cm-1:     0.056452     0.032520     0.023548
Rotational constants in MHz :  1692.393659   974.917527   705.943756

                             ****ORCA TERMINATED NORMALLY****
TOTAL RUN TIME: 0 days 0 hours 5 minutes 52 seconds 534 msec
