                         Program Version 4.1.x  -  STABLE  -
|  1> ! RHF DLPNO-CCSD(T) cc-pVDZ RIJK cc-pVTZ/JK cc-pVDZ/C
|  2> ! KDIIS SOSCF TightSCF TightPNO
|  3>
|  4> %pal nprocs 4 end
|  5>
|  6> %maxcore 8000
|  7>
|  8> %scf maxiter 300
|  9>      shift shift 0.2 erroff 0.1 end
| 10> end
| 11>
| 12> * xyzfile 0 1 N_Ac_Ala_N_Me_a_a.xyz
| 13>
| 14>
| 15>                          ****END OF INPUT****

CARTESIAN COORDINATES (ANGSTROEM)
---------------------------------
  C     -3.344180   -1.168370    0.032130
  C     -2.316330   -0.085590   -0.259180
  N     -1.061500   -0.333300    0.216110
  C      0.050590    0.571540   -0.012050
  C      0.066910    1.737400    0.998310
  O     -2.592070    0.945430   -0.881940
  C      1.337770   -0.258920    0.085890
  N      2.427410    0.262800   -0.522740
  C      3.727800   -0.394300   -0.465970
  O      1.376930   -1.306630    0.706320
  H     -3.434280   -1.345060    1.109430
  H     -3.057570   -2.114590   -0.440050
  H     -4.308820   -0.849100   -0.362340
  H     -0.055060    0.986060   -1.021840
  H     -0.830440   -1.202290    0.684490
  H      2.325260    1.102950   -1.072130
  H      4.461280    0.237580   -0.969740
  H      3.695240   -1.371930   -0.957080
  H      4.034370   -0.545000    0.572730
  H     -0.876280    2.283950    0.926180
  H      0.183400    1.357590    2.018020
  H      0.887230    2.432310    0.788870

 Total Charge           Charge          ....    0
 Multiplicity           Mult            ....    1
 Number of Electrons    NEL             ....   78
 Basis Dimension        Dim             ....  200

ORBITAL ENERGIES
----------------

  NO   OCC          E(Eh)            E(eV)
   0   2.0000     -20.529512      -558.6364
   1   2.0000     -20.512399      -558.1707
   2   2.0000     -15.596670      -424.4070
   3   2.0000     -15.578703      -423.9180
   4   2.0000     -11.358958      -309.0930
   5   2.0000     -11.351558      -308.8916
   6   2.0000     -11.287306      -307.1432
   7   2.0000     -11.276870      -306.8592
   8   2.0000     -11.240126      -305.8594
   9   2.0000     -11.234195      -305.6980
  10   2.0000      -1.395924       -37.9850
  11   2.0000      -1.364934       -37.1418
  12   2.0000      -1.237758       -33.6811
  13   2.0000      -1.226337       -33.3703
  14   2.0000      -1.051201       -28.6046
  15   2.0000      -0.987562       -26.8729
  16   2.0000      -0.959647       -26.1133
  17   2.0000      -0.880548       -23.9609
  18   2.0000      -0.799425       -21.7535
  19   2.0000      -0.777625       -21.1602
  20   2.0000      -0.725555       -19.7433
  21   2.0000      -0.668571       -18.1927
  22   2.0000      -0.652771       -17.7628
  23   2.0000      -0.638722       -17.3805
  24   2.0000      -0.628793       -17.1103
  25   2.0000      -0.612873       -16.6771
  26   2.0000      -0.596020       -16.2185
  27   2.0000      -0.581303       -15.8181
  28   2.0000      -0.563470       -15.3328
  29   2.0000      -0.559266       -15.2184
  30   2.0000      -0.559214       -15.2170
  31   2.0000      -0.539886       -14.6911
  32   2.0000      -0.523754       -14.2521
  33   2.0000      -0.518068       -14.0974
  34   2.0000      -0.488011       -13.2795
  35   2.0000      -0.428757       -11.6671
  36   2.0000      -0.412938       -11.2366
  37   2.0000      -0.401144       -10.9157
  38   2.0000      -0.380388       -10.3509
  39   0.0000       0.160190         4.3590
  40   0.0000       0.181693         4.9441
  41   0.0000       0.187125         5.0919
  42   0.0000       0.198042         5.3890
  43   0.0000       0.202435         5.5085

MULLIKEN ATOMIC CHARGES
-----------------------
   0 C :   -0.022249
   1 C :    0.305989
   2 N :   -0.359955
   3 C :    0.019349
   4 C :    0.010021
   5 O :   -0.441723
   6 C :    0.398049
   7 N :   -0.375321
   8 C :    0.118267
   9 O :   -0.430659
  10 H :    0.057549
  11 H :    0.059842
  12 H :    0.066557
  13 H :    0.053643
  14 H :    0.141570
  15 H :    0.126440
  16 H :    0.036275
  17 H :    0.051915
  18 H :    0.055416
  19 H :    0.066859
  20 H :    0.039681
  21 H :    0.022483
Sum of atomic charges:   -0.0000000

LOEWDIN ATOMIC CHARGES
----------------------
   0 C :   -0.056741
   1 C :   -0.027557
   2 N :    0.063447
   3 C :   -0.017328
   4 C :   -0.038790
   5 O :   -0.197140
   6 C :   -0.036717
   7 N :    0.054829
   8 C :    0.006512
   9 O :   -0.171868
  10 H :    0.036498
  11 H :    0.037774
  12 H :    0.040750
  13 H :    0.029506
  14 H :    0.059118
  15 H :    0.058824
  16 H :    0.024739
  17 H :    0.026243
  18 H :    0.028729
  19 H :    0.035597
  20 H :    0.024833
  21 H :    0.018741

  Mayer bond orders larger than 0.1
B(  0-C ,  1-C ) :   1.0288 B(  0-C , 10-H ) :   0.9686 B(  0-C , 11-H ) :   0.9669
B(  0-C , 12-H ) :   0.9775 B(  1-C ,  2-N ) :   1.1933 B(  1-C ,  5-O ) :   1.9493
B(  2-N ,  3-C ) :   0.9559 B(  2-N , 14-H ) :   0.9446 B(  3-C ,  4-C ) :   1.0353
B(  3-C ,  6-C ) :   0.9811 B(  3-C , 13-H ) :   0.9540 B(  4-C , 19-H ) :   0.9770
B(  4-C , 20-H ) :   0.9747 B(  4-C , 21-H ) :   0.9745 B(  6-C ,  7-N ) :   1.2085
B(  6-C ,  9-O ) :   1.9620 B(  7-N ,  8-C ) :   0.9618 B(  7-N , 15-H ) :   0.9665
B(  8-C , 16-H ) :   0.9855 B(  8-C , 17-H ) :   0.9845 B(  8-C , 18-H ) :   0.9837

E(0)                                       ...   -492.899279799
E(0)                                       ...   -492.899279799
E(CORR)(strong-pairs)                      ...     -1.596892882
E(CORR)(weak-pairs)                        ...     -0.001136928
E(CORR)(corrected)                         ...     -1.598029810
E(TOT)                                     ...   -494.497309609
E(CCSD(T))                                 ...   -494.547333777
FINAL SINGLE POINT ENERGY      -494.547333777291

DIPOLE MOMENT
-------------
                                X             Y             Z
Electronic contribution:     -2.02244      -0.94846      -1.35028
Nuclear contribution   :      3.06160       0.98189       1.29241
                        -----------------------------------------
Total Dipole Moment    :      1.03916       0.03343      -0.05787
                        -----------------------------------------
Magnitude (a.u.)       :      1.04130
Magnitude (Debye)      :      2.64679

Rotational constants in cm-1:     0.092841     0.021785     0.019804
Rotational constants in MHz :  2783.307641   653.087741   593.718989

                             ****ORCA TERMINATED NORMALLY****
TOTAL RUN TIME: 0 days 0 hours 5 minutes 5 seconds 614 msec
