                         Program Version 4.1.x  -  STABLE  -
|  1> ! RHF DLPNO-CCSD(T) cc-pVDZ RIJK cc-pVTZ/JK cc-pVDZ/C
|  2> ! KDIIS SOSCF TightSCF TightPNO
|  3>
|  4> %pal nprocs 4 end
|  5>
|  6> %maxcore 8000
|  7>
|  8> %scf maxiter 300
|  9>      shift shift 0.2 erroff 0.1 end
| 10> end
| 11>
| 12> * xyzfile 0 1 N_Ac_Gly_N_methylamide_aa.xyz
| 13>
| 14>
| 15>                          ****END OF INPUT****

CARTESIAN COORDINATES (ANGSTROEM)
---------------------------------
  C     -3.401360    0.925260    0.000530
  C     -2.348050   -0.171200    0.000090
  N     -1.056000    0.260450   -0.000870
  C      0.053200   -0.662490   -0.000940
  C      1.359610    0.134430   -0.000230
  N      2.494640   -0.608760    0.000170
  C      3.815880    0.008090    0.000670
  O     -2.630280   -1.369520    0.000550
  O      1.372310    1.365380   -0.000160
  H     -3.302220    1.563000    0.885720
  H     -3.303220    1.562750   -0.884950
  H     -4.387610    0.461220    0.001170
  H      0.012860   -1.319250    0.878540
  H      0.013530   -1.318460   -0.881040
  H     -0.808960    1.243700   -0.000790
  H      2.422200   -1.615510    0.000090
  H      4.569260   -0.781320    0.000170
  H      3.950930    0.635880   -0.885020
  H      3.950890    0.634700    0.887210

 Total Charge           Charge          ....    0
 Multiplicity           Mult            ....    1
 Number of Electrons    NEL             ....   70
 Basis Dimension        Dim             ....  176

ORBITAL ENERGIES
----------------

  NO   OCC          E(Eh)            E(eV)
   0   2.0000     -20.533542      -558.7461
   1   2.0000     -20.511663      -558.1507
   2   2.0000     -15.599819      -424.4927
   3   2.0000     -15.579424      -423.9377
   4   2.0000     -11.366943      -309.3102
   5   2.0000     -11.349576      -308.8377
   6   2.0000     -11.287489      -307.1482
   7   2.0000     -11.278789      -306.9115
   8   2.0000     -11.239414      -305.8400
   9   2.0000      -1.391121       -37.8543
  10   2.0000      -1.366974       -37.1973
  11   2.0000      -1.239405       -33.7259
  12   2.0000      -1.224955       -33.3327
  13   2.0000      -1.029028       -28.0013
  14   2.0000      -0.983017       -26.7493
  15   2.0000      -0.926279       -25.2053
  16   2.0000      -0.801635       -21.8136
  17   2.0000      -0.786697       -21.4071
  18   2.0000      -0.721313       -19.6279
  19   2.0000      -0.664043       -18.0695
  20   2.0000      -0.658634       -17.9223
  21   2.0000      -0.654578       -17.8120
  22   2.0000      -0.628341       -17.0980
  23   2.0000      -0.619416       -16.8552
  24   2.0000      -0.587927       -15.9983
  25   2.0000      -0.581095       -15.8124
  26   2.0000      -0.562521       -15.3070
  27   2.0000      -0.558170       -15.1886
  28   2.0000      -0.547516       -14.8987
  29   2.0000      -0.525788       -14.3074
  30   2.0000      -0.493148       -13.4192
  31   2.0000      -0.436444       -11.8762
  32   2.0000      -0.412769       -11.2320
  33   2.0000      -0.405245       -11.0273
  34   2.0000      -0.381991       -10.3945
  35   0.0000       0.162711         4.4276
  36   0.0000       0.177934         4.8418
  37   0.0000       0.187425         5.1001
  38   0.0000       0.198729         5.4077
  39   0.0000       0.198980         5.4145

MULLIKEN ATOMIC CHARGES
-----------------------
   0 C :   -0.024132
   1 C :    0.297099
   2 N :   -0.390327
   3 C :    0.191726
   4 C :    0.323245
   5 N :   -0.380542
   6 C :    0.119137
   7 O :   -0.434395
   8 O :   -0.438668
   9 H :    0.058673
  10 H :    0.058673
  11 H :    0.066469
  12 H :    0.067445
  13 H :    0.067421
  14 H :    0.145873
  15 H :    0.125877
  16 H :    0.037084
  17 H :    0.054689
  18 H :    0.054655
Sum of atomic charges:   -0.0000000

LOEWDIN ATOMIC CHARGES
----------------------
   0 C :   -0.057584
   1 C :   -0.033292
   2 N :    0.053347
   3 C :   -0.003461
   4 C :   -0.028026
   5 N :    0.050530
   6 C :    0.006908
   7 O :   -0.189518
   8 O :   -0.184172
   9 H :    0.036991
  10 H :    0.036990
  11 H :    0.040815
  12 H :    0.034721
  13 H :    0.034712
  14 H :    0.059953
  15 H :    0.060262
  16 H :    0.025133
  17 H :    0.027855
  18 H :    0.027835

  Mayer bond orders larger than 0.1
B(  0-C ,  1-C ) :   1.0308 B(  0-C ,  9-H ) :   0.9678 B(  0-C , 10-H ) :   0.9678
B(  0-C , 11-H ) :   0.9774 B(  1-C ,  2-N ) :   1.1861 B(  1-C ,  7-O ) :   1.9715
B(  2-N ,  3-C ) :   0.9731 B(  2-N , 14-H ) :   0.9442 B(  3-C ,  4-C ) :   0.9963
B(  3-C , 12-H ) :   0.9544 B(  3-C , 13-H ) :   0.9544 B(  4-C ,  5-N ) :   1.2214
B(  4-C ,  8-O ) :   1.9475 B(  5-N ,  6-C ) :   0.9580 B(  5-N , 15-H ) :   0.9679
B(  6-C , 16-H ) :   0.9855 B(  6-C , 17-H ) :   0.9843 B(  6-C , 18-H ) :   0.9843

E(0)                                       ...   -453.859041973
E(0)                                       ...   -453.859041973
E(CORR)(strong-pairs)                      ...     -1.439232748
E(CORR)(weak-pairs)                        ...     -0.000995907
E(CORR)(corrected)                         ...     -1.440228655
E(TOT)                                     ...   -455.299270628
E(CCSD(T))                                 ...   -455.344048896
FINAL SINGLE POINT ENERGY      -455.344048895706

DIPOLE MOMENT
-------------
                                X             Y             Z
Electronic contribution:     -1.97103      -1.14514      -0.00139
Nuclear contribution   :      3.13772       1.07539       0.00111
                        -----------------------------------------
Total Dipole Moment    :      1.16670      -0.06975      -0.00028
                        -----------------------------------------
Magnitude (a.u.)       :      1.16878
Magnitude (Debye)      :      2.97080

Rotational constants in cm-1:     0.167402     0.022434     0.020005
Rotational constants in MHz :  5018.596998   672.562646   599.730425

                             ****ORCA TERMINATED NORMALLY****
TOTAL RUN TIME: 0 days 0 hours 3 minutes 13 seconds 858 msec
