                         Program Version 4.1.x  -  STABLE  -
|  1> ! RHF DLPNO-CCSD(T) cc-pVDZ RIJK cc-pVTZ/JK cc-pVDZ/C
|  2> ! KDIIS SOSCF TightSCF TightPNO
|  3>
|  4> %pal nprocs 4 end
|  5>
|  6> %maxcore 8000
|  7>
|  8> %scf maxiter 300
|  9>      shift shift 0.2 erroff 0.1 end
| 10> end
| 11>
| 12> * xyzfile 0 1 N_Ac_Gly_N_methylamide_g_g_plus.xyz
| 13>
| 14>
| 15>                          ****END OF INPUT****

CARTESIAN COORDINATES (ANGSTROEM)
---------------------------------
  C      3.103140    0.343070    0.735370
  C      1.829750    0.192010   -0.072760
  N      1.130210   -0.962890    0.102440
  C     -0.085430   -1.269240   -0.648910
  C     -1.355330   -0.620000   -0.066000
  N     -1.417240    0.727330   -0.200410
  C     -2.525400    1.500270    0.339840
  O      1.450050    1.069220   -0.855540
  O     -2.235300   -1.299180    0.462790
  H      3.306470   -0.503650    1.396610
  H      3.941320    0.463500    0.043080
  H      3.035990    1.257120    1.331680
  H      0.063610   -0.941480   -1.682550
  H     -0.240760   -2.348040   -0.631780
  H      1.430920   -1.618050    0.808690
  H     -0.604230    1.199220   -0.586650
  H     -2.483410    2.510150   -0.072810
  H     -3.474230    1.034830    0.062080
  H     -2.484830    1.558330    1.434210

 Total Charge           Charge          ....    0
 Multiplicity           Mult            ....    1
 Number of Electrons    NEL             ....   70
 Basis Dimension        Dim             ....  176

ORBITAL ENERGIES
----------------

  NO   OCC          E(Eh)            E(eV)
   0   2.0000     -20.533227      -558.7375
   1   2.0000     -20.510599      -558.1218
   2   2.0000     -15.608842      -424.7382
   3   2.0000     -15.571225      -423.7146
   4   2.0000     -11.374110      -309.5053
   5   2.0000     -11.343532      -308.6732
   6   2.0000     -11.286601      -307.1240
   7   2.0000     -11.259009      -306.3732
   8   2.0000     -11.258837      -306.3685
   9   2.0000      -1.391315       -37.8596
  10   2.0000      -1.364307       -37.1247
  11   2.0000      -1.245747       -33.8985
  12   2.0000      -1.213314       -33.0159
  13   2.0000      -1.037630       -28.2353
  14   2.0000      -0.979865       -26.6635
  15   2.0000      -0.923655       -25.1339
  16   2.0000      -0.809025       -22.0147
  17   2.0000      -0.771623       -20.9969
  18   2.0000      -0.715864       -19.4796
  19   2.0000      -0.697028       -18.9671
  20   2.0000      -0.667687       -18.1687
  21   2.0000      -0.633881       -17.2488
  22   2.0000      -0.619329       -16.8528
  23   2.0000      -0.607124       -16.5207
  24   2.0000      -0.591762       -16.1027
  25   2.0000      -0.579825       -15.7778
  26   2.0000      -0.566786       -15.4230
  27   2.0000      -0.555670       -15.1206
  28   2.0000      -0.537441       -14.6245
  29   2.0000      -0.525623       -14.3029
  30   2.0000      -0.505547       -13.7566
  31   2.0000      -0.441313       -12.0087
  32   2.0000      -0.431954       -11.7541
  33   2.0000      -0.388522       -10.5722
  34   2.0000      -0.375038       -10.2053
  35   0.0000       0.154557         4.2057
  36   0.0000       0.169562         4.6140
  37   0.0000       0.198551         5.4029
  38   0.0000       0.199923         5.4402
  39   0.0000       0.205772         5.5993

MULLIKEN ATOMIC CHARGES
-----------------------
   0 C :   -0.006788
   1 C :    0.314504
   2 N :   -0.371069
   3 C :    0.162644
   4 C :    0.323138
   5 N :   -0.382820
   6 C :    0.117970
   7 O :   -0.463471
   8 O :   -0.433006
   9 H :    0.036367
  10 H :    0.078330
  11 H :    0.075952
  12 H :    0.072729
  13 H :    0.062611
  14 H :    0.130014
  15 H :    0.155212
  16 H :    0.035422
  17 H :    0.054819
  18 H :    0.037442
Sum of atomic charges:    0.0000000

LOEWDIN ATOMIC CHARGES
----------------------
   0 C :   -0.050777
   1 C :   -0.020561
   2 N :    0.063312
   3 C :    0.008334
   4 C :   -0.047260
   5 N :    0.049163
   6 C :    0.001614
   7 O :   -0.199578
   8 O :   -0.188731
   9 H :    0.025442
  10 H :    0.049593
  11 H :    0.047963
  12 H :    0.036329
  13 H :    0.036576
  14 H :    0.062387
  15 H :    0.054575
  16 H :    0.023866
  17 H :    0.028751
  18 H :    0.019002

  Mayer bond orders larger than 0.1
B(  0-C ,  1-C ) :   1.0228 B(  0-C ,  9-H ) :   0.9773 B(  0-C , 10-H ) :   0.9641
B(  0-C , 11-H ) :   0.9656 B(  1-C ,  2-N ) :   1.1988 B(  1-C ,  7-O ) :   1.8898
B(  2-N ,  3-C ) :   0.9543 B(  2-N , 14-H ) :   0.9652 B(  3-C ,  4-C ) :   0.9896
B(  3-C , 12-H ) :   0.9602 B(  3-C , 13-H ) :   0.9697 B(  4-C ,  5-N ) :   1.2395
B(  4-C ,  8-O ) :   1.9798 B(  5-N ,  6-C ) :   0.9706 B(  5-N , 15-H ) :   0.9338
B(  6-C , 16-H ) :   0.9868 B(  6-C , 17-H ) :   0.9825 B(  6-C , 18-H ) :   0.9846

E(0)                                       ...   -453.858428178
E(0)                                       ...   -453.858428178
E(CORR)(strong-pairs)                      ...     -1.441839922
E(CORR)(weak-pairs)                        ...     -0.000847924
E(CORR)(corrected)                         ...     -1.442687846
E(TOT)                                     ...   -455.301116024
E(CCSD(T))                                 ...   -455.346579170
FINAL SINGLE POINT ENERGY      -455.346579169653

DIPOLE MOMENT
-------------
                                X             Y             Z
Electronic contribution:     -1.05958      -2.68500      -1.71198
Nuclear contribution   :      2.50187       2.63333       2.11702
                        -----------------------------------------
Total Dipole Moment    :      1.44229      -0.05167       0.40504
                        -----------------------------------------
Magnitude (a.u.)       :      1.49898
Magnitude (Debye)      :      3.81010

Rotational constants in cm-1:     0.093962     0.032638     0.027256
Rotational constants in MHz :  2816.924099   978.452887   817.111714

                             ****ORCA TERMINATED NORMALLY****
TOTAL RUN TIME: 0 days 0 hours 3 minutes 40 seconds 768 msec
