                         Program Version 4.1.x  -  STABLE  -
|  1> ! RHF DLPNO-CCSD(T) cc-pVDZ RIJK cc-pVTZ/JK cc-pVDZ/C
|  2> ! KDIIS SOSCF TightSCF TightPNO
|  3>
|  4> %pal nprocs 4 end
|  5>
|  6> %maxcore 8000
|  7>
|  8> %scf maxiter 300
|  9>      shift shift 0.2 erroff 0.1 end
| 10> end
| 11>
| 12> * xyzfile 0 1 N_me_piperidine_sofa_eq.xyz
| 13>
| 14>
| 15>                          ****END OF INPUT****

CARTESIAN COORDINATES (ANGSTROEM)
---------------------------------
  C     -1.148000    1.307600    0.020000
  C     -1.929300   -0.021800   -0.131800
  C     -1.105300   -1.323900   -0.110100
  C      0.317500   -1.135500    0.377300
  N      0.926600   -0.027700   -0.344500
  C      0.372600    1.203400    0.193700
  H     -1.550300    1.878800    0.854600
  H     -1.334400    1.905700   -0.871300
  H     -2.508100    0.012700   -1.051600
  H     -2.662200   -0.071600    0.673600
  H     -1.035100   -1.719600   -1.123100
  H     -1.610200   -2.078500    0.493100
  H      0.893700   -2.041300    0.185200
  H      0.351200   -0.949300    1.466200
  C      2.366200   -0.027100   -0.156600
  H      0.854500    2.048500   -0.298000
  H      0.629900    1.269900    1.267100
  H      2.805300    0.814000   -0.691100
  H      2.646900    0.056400    0.905600
  H      2.789800   -0.947900   -0.553800

 Total Charge           Charge          ....    0
 Multiplicity           Mult            ....    1
 Number of Electrons    NEL             ....   56
 Basis Dimension        Dim             ....  163

ORBITAL ENERGIES
----------------

  NO   OCC          E(Eh)            E(eV)
   0   2.0000     -15.540617      -422.8817
   1   2.0000     -11.243399      -305.9484
   2   2.0000     -11.242490      -305.9237
   3   2.0000     -11.242184      -305.9154
   4   2.0000     -11.218034      -305.2582
   5   2.0000     -11.217489      -305.2434
   6   2.0000     -11.214782      -305.1697
   7   2.0000      -1.235131       -33.6096
   8   2.0000      -1.059905       -28.8415
   9   2.0000      -1.012237       -27.5444
  10   2.0000      -0.934500       -25.4290
  11   2.0000      -0.847537       -23.0627
  12   2.0000      -0.836264       -22.7559
  13   2.0000      -0.736713       -20.0470
  14   2.0000      -0.653836       -17.7918
  15   2.0000      -0.639948       -17.4139
  16   2.0000      -0.623658       -16.9706
  17   2.0000      -0.603040       -16.4096
  18   2.0000      -0.571617       -15.5545
  19   2.0000      -0.543044       -14.7770
  20   2.0000      -0.528221       -14.3736
  21   2.0000      -0.524776       -14.2799
  22   2.0000      -0.502734       -13.6801
  23   2.0000      -0.485481       -13.2106
  24   2.0000      -0.452678       -12.3180
  25   2.0000      -0.437784       -11.9127
  26   2.0000      -0.434829       -11.8323
  27   2.0000      -0.353492        -9.6190
  28   0.0000       0.174845         4.7578
  29   0.0000       0.202971         5.5231
  30   0.0000       0.207609         5.6493
  31   0.0000       0.213991         5.8230
  32   0.0000       0.247690         6.7400

MULLIKEN ATOMIC CHARGES
-----------------------
   0 C :   -0.027649
   1 C :   -0.054887
   2 C :   -0.005500
   3 C :    0.098365
   4 N :   -0.488562
   5 C :    0.104912
   6 H :    0.024497
   7 H :    0.030225
   8 H :    0.029279
   9 H :    0.024312
  10 H :    0.029391
  11 H :    0.017449
  12 H :    0.019909
  13 H :    0.000593
  14 C :    0.119359
  15 H :    0.022586
  16 H :   -0.002142
  17 H :    0.029050
  18 H :   -0.001167
  19 H :    0.029979
Sum of atomic charges:   -0.0000000

LOEWDIN ATOMIC CHARGES
----------------------
   0 C :   -0.033566
   1 C :   -0.030648
   2 C :   -0.033707
   3 C :   -0.011801
   4 N :   -0.030560
   5 C :   -0.013389
   6 H :    0.020249
   7 H :    0.020676
   8 H :    0.021840
   9 H :    0.017762
  10 H :    0.020129
  11 H :    0.017904
  12 H :    0.016411
  13 H :   -0.004755
  14 C :   -0.018585
  15 H :    0.015707
  16 H :   -0.006546
  17 H :    0.017202
  18 H :   -0.000997
  19 H :    0.016675

  Mayer bond orders larger than 0.1
B(  0-C ,  1-C ) :   1.0354 B(  0-C ,  5-C ) :   1.0557 B(  0-C ,  6-H ) :   0.9721
B(  0-C ,  7-H ) :   0.9720 B(  1-C ,  2-C ) :   1.0392 B(  1-C ,  8-H ) :   0.9774
B(  1-C ,  9-H ) :   0.9755 B(  2-C ,  3-C ) :   1.0664 B(  2-C , 10-H ) :   0.9640
B(  2-C , 11-H ) :   0.9698 B(  3-C ,  4-N ) :   0.9805 B(  3-C , 12-H ) :   0.9742
B(  3-C , 13-H ) :   0.9549 B(  4-N ,  5-C ) :   0.9856 B(  4-N , 14-C ) :   1.0124
B(  5-C , 15-H ) :   0.9761 B(  5-C , 16-H ) :   0.9598 B( 14-C , 17-H ) :   0.9876
B( 14-C , 18-H ) :   0.9700 B( 14-C , 19-H ) :   0.9882

E(0)                                       ...   -289.221278199
E(0)                                       ...   -289.221278199
E(CORR)(strong-pairs)                      ...     -1.107371045
E(CORR)(weak-pairs)                        ...     -0.000469220
E(CORR)(corrected)                         ...     -1.107840265
E(TOT)                                     ...   -290.329118465
E(CCSD(T))                                 ...   -290.362712233
FINAL SINGLE POINT ENERGY      -290.362712233085

DIPOLE MOMENT
-------------
                                X             Y             Z
Electronic contribution:     -0.25577      -0.17095      -1.10088
Nuclear contribution   :      0.29330       0.18835       1.33031
                        -----------------------------------------
Total Dipole Moment    :      0.03752       0.01740       0.22943
                        -----------------------------------------
Magnitude (a.u.)       :      0.23313
Magnitude (Debye)      :      0.59257

Rotational constants in cm-1:     0.145119     0.077243     0.055223
Rotational constants in MHz :  4350.551050  2315.691043  1655.539866

                             ****ORCA TERMINATED NORMALLY****
TOTAL RUN TIME: 0 days 0 hours 3 minutes 17 seconds 76 msec
