                         Program Version 4.1.x  -  STABLE  -
|  1> ! RHF DLPNO-CCSD(T) cc-pVDZ RIJK cc-pVTZ/JK cc-pVDZ/C
|  2> ! KDIIS SOSCF TightSCF TightPNO
|  3>
|  4> %pal nprocs 4 end
|  5>
|  6> %maxcore 8000
|  7>
|  8> %scf maxiter 300
|  9>      shift shift 0.2 erroff 0.1 end
| 10> end
| 11>
| 12> * xyzfile 1 1 N_Me_piperidinium_ax.xyz
| 13>
| 14>
| 15>                          ****END OF INPUT****

CARTESIAN COORDINATES (ANGSTROEM)
---------------------------------
  C      1.814880    0.000030    0.153780
  C      0.960220    1.265940    0.320400
  C     -0.242730    1.260260   -0.618850
  N     -1.091300   -0.000010   -0.445620
  C     -0.242710   -1.260280   -0.618820
  C      0.960280   -1.265910    0.320390
  C     -1.901380   -0.000010    0.823200
  H     -0.907910    2.112160   -0.459790
  H      0.076690    1.258250   -1.665350
  H      0.076700   -1.258300   -1.665320
  H     -0.907850   -2.112190   -0.459720
  H      0.632400    1.377430    1.360630
  H      1.544210    2.162860    0.089950
  H      1.544300   -2.162810    0.089910
  H      0.632490   -1.377420    1.360620
  H      2.282850    0.000020   -0.839370
  H      2.629440    0.000030    0.883140
  H     -2.526360    0.893700    0.837660
  H     -2.526540   -0.893600    0.837540
  H     -1.235530   -0.000150    1.683080
  H     -1.767180   -0.000030   -1.214350

 Total Charge           Charge          ....    1
 Multiplicity           Mult            ....    1
 Number of Electrons    NEL             ....   56
 Basis Dimension        Dim             ....  168

ORBITAL ENERGIES
----------------

  NO   OCC          E(Eh)            E(eV)
   0   2.0000     -15.862964      -431.6532
   1   2.0000     -11.459379      -311.8255
   2   2.0000     -11.459363      -311.8251
   3   2.0000     -11.458848      -311.8111
   4   2.0000     -11.394146      -310.0505
   5   2.0000     -11.394145      -310.0504
   6   2.0000     -11.381385      -309.7032
   7   2.0000      -1.490707       -40.5642
   8   2.0000      -1.250981       -34.0409
   9   2.0000      -1.210115       -32.9289
  10   2.0000      -1.151934       -31.3457
  11   2.0000      -1.059034       -28.8178
  12   2.0000      -1.037824       -28.2406
  13   2.0000      -0.935232       -25.4490
  14   2.0000      -0.922387       -25.0994
  15   2.0000      -0.839532       -22.8448
  16   2.0000      -0.839313       -22.8389
  17   2.0000      -0.795962       -21.6592
  18   2.0000      -0.758912       -20.6510
  19   2.0000      -0.757900       -20.6235
  20   2.0000      -0.729361       -19.8469
  21   2.0000      -0.727792       -19.8042
  22   2.0000      -0.715314       -19.4647
  23   2.0000      -0.710316       -19.3287
  24   2.0000      -0.674184       -18.3455
  25   2.0000      -0.628817       -17.1110
  26   2.0000      -0.625382       -17.0175
  27   2.0000      -0.623712       -16.9721
  28   0.0000      -0.014083        -0.3832
  29   0.0000       0.025340         0.6895
  30   0.0000       0.048105         1.3090
  31   0.0000       0.057803         1.5729
  32   0.0000       0.072493         1.9726

MULLIKEN ATOMIC CHARGES
-----------------------
   0 C :   -0.056355
   1 C :   -0.067639
   2 C :    0.068542
   3 N :   -0.312598
   4 C :    0.068546
   5 C :   -0.067640
   6 C :    0.059184
   7 H :    0.094891
   8 H :    0.091416
   9 H :    0.091414
  10 H :    0.094889
  11 H :    0.062465
  12 H :    0.087582
  13 H :    0.087583
  14 H :    0.062461
  15 H :    0.057858
  16 H :    0.077060
  17 H :    0.101881
  18 H :    0.101882
  19 H :    0.105558
  20 H :    0.191020
Sum of atomic charges:    1.0000000

LOEWDIN ATOMIC CHARGES
----------------------
   0 C :   -0.022173
   1 C :   -0.030112
   2 C :    0.052162
   3 N :    0.265315
   4 C :    0.052166
   5 C :   -0.030112
   6 C :    0.047658
   7 H :    0.043571
   8 H :    0.042388
   9 H :    0.042387
  10 H :    0.043570
  11 H :    0.031838
  12 H :    0.052202
  13 H :    0.052204
  14 H :    0.031835
  15 H :    0.031775
  16 H :    0.044279
  17 H :    0.048603
  18 H :    0.048605
  19 H :    0.043988
  20 H :    0.107851

  Mayer bond orders larger than 0.1
B(  0-C ,  1-C ) :   1.0381 B(  0-C ,  5-C ) :   1.0381 B(  0-C , 15-H ) :   0.9646
B(  0-C , 16-H ) :   0.9694 B(  1-C ,  2-C ) :   1.0429 B(  1-C , 11-H ) :   0.9627
B(  1-C , 12-H ) :   0.9641 B(  2-C ,  3-N ) :   0.8647 B(  2-C ,  7-H ) :   0.9720
B(  2-C ,  8-H ) :   0.9672 B(  3-N ,  4-C ) :   0.8647 B(  3-N ,  6-C ) :   0.8899
B(  3-N , 20-H ) :   0.9328 B(  4-C ,  5-C ) :   1.0429 B(  4-C ,  9-H ) :   0.9672
B(  4-C , 10-H ) :   0.9720 B(  5-C , 13-H ) :   0.9641 B(  5-C , 14-H ) :   0.9627
B(  6-C , 17-H ) :   0.9789 B(  6-C , 18-H ) :   0.9789 B(  6-C , 19-H ) :   0.9778

E(0)                                       ...   -289.625875510
E(0)                                       ...   -289.625875510
E(CORR)(strong-pairs)                      ...     -1.106722135
E(CORR)(weak-pairs)                        ...     -0.000478838
E(CORR)(corrected)                         ...     -1.107200972
E(TOT)                                     ...   -290.733076482
E(CCSD(T))                                 ...   -290.766279797
FINAL SINGLE POINT ENERGY      -290.766279796646

DIPOLE MOMENT
-------------
                                X             Y             Z
Electronic contribution:     -0.76708       0.00004      -1.31301
Nuclear contribution   :     -0.49012      -0.00007       0.89333
                        -----------------------------------------
Total Dipole Moment    :     -1.25720      -0.00003      -0.41968
                        -----------------------------------------
Magnitude (a.u.)       :      1.32540
Magnitude (Debye)      :      3.36890

Rotational constants in cm-1:     0.117416     0.084214     0.063853
Rotational constants in MHz :  3520.043737  2524.683928  1914.265085

                             ****ORCA TERMINATED NORMALLY****
TOTAL RUN TIME: 0 days 0 hours 2 minutes 33 seconds 498 msec
