                         Program Version 4.1.x  -  STABLE  -
|  1> ! RHF DLPNO-CCSD(T) cc-pVDZ RIJK cc-pVTZ/JK cc-pVDZ/C
|  2> ! KDIIS SOSCF TightSCF TightPNO
|  3>
|  4> %pal nprocs 4 end
|  5>
|  6> %maxcore 8000
|  7>
|  8> %scf maxiter 300
|  9>      shift shift 0.2 erroff 0.1 end
| 10> end
| 11>
| 12> * xyzfile 0 1 N_Me_ethylamine_g_.xyz
| 13>
| 14>
| 15>                          ****END OF INPUT****

CARTESIAN COORDINATES (ANGSTROEM)
---------------------------------
  C     -1.583100   -0.520200   -0.117850
  C     -0.635870    0.611870    0.285770
  N      0.658550    0.529820   -0.396430
  C      1.549120   -0.510360    0.111550
  H     -0.521770    0.614550    1.387910
  H     -1.089410    1.571100    0.010710
  H     -2.556760   -0.393770    0.368500
  H     -1.731740   -0.525150   -1.202420
  H      1.125480    1.429620   -0.340910
  H     -1.195200   -1.501070    0.176490
  H      2.524780   -0.421460   -0.375540
  H      1.701840   -0.469970    1.206630
  H      1.152130   -1.500420   -0.133190

 Total Charge           Charge          ....    0
 Multiplicity           Mult            ....    1
 Number of Electrons    NEL             ....   34
 Basis Dimension        Dim             ....  101

ORBITAL ENERGIES
----------------

  NO   OCC          E(Eh)            E(eV)
   0   2.0000     -15.537151      -422.7874
   1   2.0000     -11.249517      -306.1149
   2   2.0000     -11.245485      -306.0052
   3   2.0000     -11.215342      -305.1850
   4   2.0000      -1.192774       -32.4570
   5   2.0000      -0.998591       -27.1730
   6   2.0000      -0.901942       -24.5431
   7   2.0000      -0.799724       -21.7616
   8   2.0000      -0.660991       -17.9865
   9   2.0000      -0.621928       -16.9235
  10   2.0000      -0.586366       -15.9558
  11   2.0000      -0.551885       -15.0176
  12   2.0000      -0.537111       -14.6155
  13   2.0000      -0.503614       -13.7040
  14   2.0000      -0.488130       -13.2827
  15   2.0000      -0.472125       -12.8472
  16   2.0000      -0.360977        -9.8227
  17   0.0000       0.181719         4.9448
  18   0.0000       0.211913         5.7665
  19   0.0000       0.221867         6.0373
  20   0.0000       0.240865         6.5543
  21   0.0000       0.269040         7.3209

MULLIKEN ATOMIC CHARGES
-----------------------
   0 C :   -0.042729
   1 C :    0.048020
   2 N :   -0.375633
   3 C :    0.081743
   4 H :    0.004661
   5 H :    0.024236
   6 H :    0.025553
   7 H :    0.038235
   8 H :    0.096050
   9 H :    0.028181
  10 H :    0.031220
  11 H :    0.005569
  12 H :    0.034891
Sum of atomic charges:   -0.0000000

LOEWDIN ATOMIC CHARGES
----------------------
   0 C :   -0.056048
   1 C :   -0.019020
   2 N :   -0.047550
   3 C :   -0.026964
   4 H :   -0.001707
   5 H :    0.017167
   6 H :    0.021955
   7 H :    0.023312
   8 H :    0.035007
   9 H :    0.018153
  10 H :    0.019635
  11 H :   -0.000695
  12 H :    0.016753

  Mayer bond orders larger than 0.1
B(  0-C ,  1-C ) :   1.0594 B(  0-C ,  6-H ) :   0.9822 B(  0-C ,  7-H ) :   0.9791
B(  0-C ,  9-H ) :   0.9811 B(  1-C ,  2-N ) :   1.0272 B(  1-C ,  4-H ) :   0.9650
B(  1-C ,  5-H ) :   0.9760 B(  2-N ,  3-C ) :   1.0225 B(  2-N ,  8-H ) :   0.9741
B(  3-C , 10-H ) :   0.9905 B(  3-C , 11-H ) :   0.9748 B(  3-C , 12-H ) :   0.9854

E(0)                                       ...   -173.289494632
E(0)                                       ...   -173.289494632
E(CORR)(strong-pairs)                      ...     -0.668239695
E(CORR)(weak-pairs)                        ...     -0.000160479
E(CORR)(corrected)                         ...     -0.668400174
E(TOT)                                     ...   -173.957894806
E(CCSD(T))                                 ...   -173.975760732
FINAL SINGLE POINT ENERGY      -173.975760732286

DIPOLE MOMENT
-------------
                                X             Y             Z
Electronic contribution:      0.74720       1.44547      -0.85400
Nuclear contribution   :     -0.63389      -1.28922       1.18377
                        -----------------------------------------
Total Dipole Moment    :      0.11331       0.15625       0.32978
                        -----------------------------------------
Magnitude (a.u.)       :      0.38211
Magnitude (Debye)      :      0.97124

Rotational constants in cm-1:     0.497688     0.163480     0.141142
Rotational constants in MHz : 14920.299914  4901.012445  4231.330940

                             ****ORCA TERMINATED NORMALLY****
TOTAL RUN TIME: 0 days 0 hours 0 minutes 43 seconds 569 msec
