                         Program Version 4.1.x  -  STABLE  -
|  1> ! RHF DLPNO-CCSD(T) cc-pVDZ RIJK cc-pVTZ/JK cc-pVDZ/C
|  2> ! KDIIS SOSCF TightSCF TightPNO
|  3>
|  4> %pal nprocs 4 end
|  5>
|  6> %maxcore 8000
|  7>
|  8> %scf maxiter 300
|  9>      shift shift 0.2 erroff 0.1 end
| 10> end
| 11>
| 12> * xyzfile 0 1 N_methylformamidine_t.xyz
| 13>
| 14>
| 15>                          ****END OF INPUT****

CARTESIAN COORDINATES (ANGSTROEM)
---------------------------------
  C     -1.812040    0.068060   -0.000080
  N     -0.471830   -0.485950    0.000070
  C      0.507380    0.329120    0.000150
  N      1.815410   -0.076310    0.000030
  H      0.386580    1.423670    0.000060
  H      2.568670    0.588740   -0.000600
  H      2.027170   -1.062270   -0.000280
  H     -2.361930   -0.284530    0.881080
  H     -1.835670    1.172100   -0.000330
  H     -2.361940   -0.284950   -0.881070

 Total Charge           Charge          ....    0
 Multiplicity           Mult            ....    1
 Number of Electrons    NEL             ....   32
 Basis Dimension        Dim             ....   86

ORBITAL ENERGIES
----------------

  NO   OCC          E(Eh)            E(eV)
   0   2.0000     -15.568481      -423.6399
   1   2.0000     -15.519461      -422.3060
   2   2.0000     -11.308699      -307.7254
   3   2.0000     -11.240056      -305.8575
   4   2.0000      -1.248028       -33.9606
   5   2.0000      -1.150707       -31.3123
   6   2.0000      -0.922820       -25.1112
   7   2.0000      -0.796544       -21.6751
   8   2.0000      -0.709874       -19.3166
   9   2.0000      -0.645342       -17.5607
  10   2.0000      -0.590566       -16.0701
  11   2.0000      -0.574242       -15.6259
  12   2.0000      -0.529571       -14.4104
  13   2.0000      -0.497701       -13.5431
  14   2.0000      -0.387353       -10.5404
  15   2.0000      -0.334572        -9.1042
  16   0.0000       0.186808         5.0833
  17   0.0000       0.201043         5.4707
  18   0.0000       0.211532         5.7561
  19   0.0000       0.226957         6.1758
  20   0.0000       0.270414         7.3583

MULLIKEN ATOMIC CHARGES
-----------------------
   0 C :    0.099273
   1 N :   -0.426530
   2 C :    0.263541
   3 N :   -0.255892
   4 H :    0.016789
   5 H :    0.120782
   6 H :    0.128553
   7 H :    0.029473
   8 H :   -0.005470
   9 H :    0.029481
Sum of atomic charges:    0.0000000

LOEWDIN ATOMIC CHARGES
----------------------
   0 C :   -0.031805
   1 N :   -0.123138
   2 C :   -0.016299
   3 N :    0.030752
   4 H :   -0.001764
   5 H :    0.052978
   6 H :    0.058394
   7 H :    0.016454
   8 H :   -0.002032
   9 H :    0.016459

  Mayer bond orders larger than 0.1
B(  0-C ,  1-N ) :   1.0284 B(  0-C ,  7-H ) :   0.9809 B(  0-C ,  8-H ) :   0.9756
B(  0-C ,  9-H ) :   0.9809 B(  1-N ,  2-C ) :   1.9156 B(  2-C ,  3-N ) :   1.1913
B(  2-C ,  4-H ) :   0.9530 B(  3-N ,  5-H ) :   0.9819 B(  3-N ,  6-H ) :   0.9687

E(0)                                       ...   -188.122396062
E(0)                                       ...   -188.122396062
E(CORR)(strong-pairs)                      ...     -0.650672763
E(CORR)(weak-pairs)                        ...     -0.000131572
E(CORR)(corrected)                         ...     -0.650804335
E(TOT)                                     ...   -188.773200396
E(CCSD(T))                                 ...   -188.793179618
FINAL SINGLE POINT ENERGY      -188.793179618347

DIPOLE MOMENT
-------------
                                X             Y             Z
Electronic contribution:      2.35170      -0.90954       0.00056
Nuclear contribution   :     -1.62365       1.60319      -0.00118
                        -----------------------------------------
Total Dipole Moment    :      0.72805       0.69365      -0.00061
                        -----------------------------------------
Magnitude (a.u.)       :      1.00559
Magnitude (Debye)      :      2.55600

Rotational constants in cm-1:     1.486539     0.141745     0.132591
Rotational constants in MHz : 44565.319471  4249.394780  3974.986126

                             ****ORCA TERMINATED NORMALLY****
TOTAL RUN TIME: 0 days 0 hours 0 minutes 25 seconds 436 msec
