                         Program Version 4.1.x  -  STABLE  -
|  1> ! RHF DLPNO-CCSD(T) cc-pVDZ RIJK cc-pVTZ/JK cc-pVDZ/C
|  2> ! KDIIS SOSCF TightSCF TightPNO
|  3>
|  4> %pal nprocs 4 end
|  5>
|  6> %maxcore 8000
|  7>
|  8> %scf maxiter 300
|  9>      shift shift 0.2 erroff 0.1 end
| 10> end
| 11>
| 12> * xyzfile 0 1 N_Me_spiro_piperidine_2_2p_adamantane_b.xyz
| 13>
| 14>
| 15>                          ****END OF INPUT****

CARTESIAN COORDINATES (ANGSTROEM)
---------------------------------
  C      2.306040   -1.253600   -0.078280
  C      1.322730   -1.243630   -1.263950
  C      0.347550   -0.040660   -1.143200
  C     -0.507700   -0.105310    0.171350
  C      0.569410   -0.070900    1.306680
  C      1.540500   -1.268410    1.253540
  C      1.416650    1.217320    1.233120
  C      2.239570    1.238350   -0.065570
  C      1.293440    1.177170   -1.273080
  C      3.171350    0.016950   -0.118000
  C     -1.257300   -1.470600    0.287100
  C     -2.518700   -1.525230   -0.585930
  C     -3.443580   -0.346200   -0.266510
  C     -2.811370    0.523730    0.824530
  N     -1.470540    0.996500    0.479220
  C     -1.608900    2.041040   -0.527310
  H      2.968770   -2.152170   -0.142600
  H      0.798230   -2.219740   -1.354620
  H      1.899270   -1.183470   -2.217510
  H     -0.333700   -0.070950   -2.026050
  H      0.049730   -0.090040    2.296600
  H      1.016600   -2.240390    1.395070
  H      2.260890   -1.211170    2.103810
  H      2.105320    1.269950    2.109580
  H      0.773950    2.125380    1.296640
  H      2.853600    2.172160   -0.110390
  H      1.889970    1.109550   -2.213620
  H      0.770510    2.143930   -1.400530
  H      3.788170    0.036430   -1.047710
  H      3.886410    0.035010    0.738360
  H     -1.529850   -1.688530    1.345870
  H     -0.645160   -2.353920    0.014020
  H     -3.052000   -2.493400   -0.425580
  H     -2.227140   -1.500180   -1.662700
  H     -4.434720   -0.718510    0.088230
  H     -3.646640    0.256220   -1.183340
  H     -2.775570   -0.021830    1.796600
  H     -3.487210    1.379410    1.064330
  H     -2.504250    2.679300   -0.349250
  H     -0.788080    2.782000   -0.435830
  H     -1.701430    1.639390   -1.560770

 Total Charge           Charge          ....    0
 Multiplicity           Mult            ....    1
 Number of Electrons    NEL             ....  122
 Basis Dimension        Dim             ....  349

ORBITAL ENERGIES
----------------

  NO   OCC          E(Eh)            E(eV)
   0   2.0000     -15.541381      -422.9025
   1   2.0000     -11.263778      -306.5030
   2   2.0000     -11.248140      -306.0775
   3   2.0000     -11.245853      -306.0152
   4   2.0000     -11.232742      -305.6584
   5   2.0000     -11.223906      -305.4180
   6   2.0000     -11.223306      -305.4017
   7   2.0000     -11.221919      -305.3639
   8   2.0000     -11.221640      -305.3564
   9   2.0000     -11.220684      -305.3303
  10   2.0000     -11.219319      -305.2932
  11   2.0000     -11.217236      -305.2365
  12   2.0000     -11.215883      -305.1997
  13   2.0000     -11.215508      -305.1895
  14   2.0000     -11.214929      -305.1737
  15   2.0000     -11.211810      -305.0889
  16   2.0000      -1.228417       -33.4269
  17   2.0000      -1.151139       -31.3241
  18   2.0000      -1.063336       -28.9348
  19   2.0000      -1.036657       -28.2089
  20   2.0000      -1.030780       -28.0490
  21   2.0000      -1.025444       -27.9038
  22   2.0000      -0.956464       -26.0267
  23   2.0000      -0.926944       -25.2234
  24   2.0000      -0.894767       -24.3479
  25   2.0000      -0.862760       -23.4769
  26   2.0000      -0.836154       -22.7529
  27   2.0000      -0.794524       -21.6201
  28   2.0000      -0.785954       -21.3869
  29   2.0000      -0.775898       -21.1133
  30   2.0000      -0.728746       -19.8302
  31   2.0000      -0.684232       -18.6189
  32   2.0000      -0.654820       -17.8185
  33   2.0000      -0.653126       -17.7725
  34   2.0000      -0.621668       -16.9164
  35   2.0000      -0.610156       -16.6032
  36   2.0000      -0.598457       -16.2848
  37   2.0000      -0.587000       -15.9731
  38   2.0000      -0.583050       -15.8656
  39   2.0000      -0.574901       -15.6439
  40   2.0000      -0.567677       -15.4473
  41   2.0000      -0.549491       -14.9524
  42   2.0000      -0.545023       -14.8308
  43   2.0000      -0.535012       -14.5584
  44   2.0000      -0.529502       -14.4085
  45   2.0000      -0.519149       -14.1268
  46   2.0000      -0.517456       -14.0807
  47   2.0000      -0.512099       -13.9349
  48   2.0000      -0.494824       -13.4649
  49   2.0000      -0.480434       -13.0733
  50   2.0000      -0.473959       -12.8971
  51   2.0000      -0.458249       -12.4696
  52   2.0000      -0.454788       -12.3754
  53   2.0000      -0.454520       -12.3681
  54   2.0000      -0.445902       -12.1336
  55   2.0000      -0.438383       -11.9290
  56   2.0000      -0.425002       -11.5649
  57   2.0000      -0.402630       -10.9561
  58   2.0000      -0.397474       -10.8158
  59   2.0000      -0.389577       -10.6009
  60   2.0000      -0.328492        -8.9387
  61   0.0000       0.162683         4.4268
  62   0.0000       0.186366         5.0713
  63   0.0000       0.191994         5.2244
  64   0.0000       0.204600         5.5675
  65   0.0000       0.215307         5.8588

MULLIKEN ATOMIC CHARGES
-----------------------
   0 C :   -0.154794
   1 C :    0.058992
   2 C :   -0.110679
   3 C :   -0.044665
   4 C :   -0.052812
   5 C :    0.056378
   6 C :    0.075172
   7 C :   -0.161372
   8 C :    0.065018
   9 C :    0.064175
  10 C :   -0.024224
  11 C :   -0.005909
  12 C :   -0.058797
  13 C :    0.109209
  14 N :   -0.515178
  15 C :    0.101073
  16 H :    0.004485
  17 H :    0.025124
  18 H :    0.027144
  19 H :    0.015734
  20 H :    0.003787
  21 H :    0.021815
  22 H :    0.022670
  23 H :    0.020665
  24 H :    0.035207
  25 H :    0.003233
  26 H :    0.021280
  27 H :    0.022923
  28 H :    0.018859
  29 H :    0.020587
  30 H :    0.031018
  31 H :    0.035950
  32 H :    0.029002
  33 H :    0.028946
  34 H :    0.025710
  35 H :    0.028630
  36 H :    0.027440
  37 H :    0.032785
  38 H :    0.033287
  39 H :    0.037953
  40 H :    0.024180
Sum of atomic charges:    0.0000000

LOEWDIN ATOMIC CHARGES
----------------------
   0 C :   -0.036641
   1 C :   -0.016974
   2 C :   -0.027308
   3 C :   -0.015773
   4 C :   -0.025770
   5 C :   -0.025268
   6 C :   -0.020554
   7 C :   -0.037730
   8 C :   -0.022859
   9 C :   -0.022882
  10 C :   -0.031984
  11 C :   -0.036052
  12 C :   -0.049549
  13 C :   -0.018683
  14 N :   -0.025128
  15 C :   -0.027477
  16 H :    0.017290
  17 H :    0.014814
  18 H :    0.021804
  19 H :    0.014155
  20 H :    0.015990
  21 H :    0.015675
  22 H :    0.019439
  23 H :    0.017715
  24 H :    0.021285
  25 H :    0.017327
  26 H :    0.019914
  27 H :    0.015433
  28 H :    0.015407
  29 H :    0.016209
  30 H :    0.020823
  31 H :    0.021226
  32 H :    0.022630
  33 H :    0.017797
  34 H :    0.021373
  35 H :    0.018488
  36 H :    0.015555
  37 H :    0.020687
  38 H :    0.021381
  39 H :    0.014768
  40 H :    0.003447

  Mayer bond orders larger than 0.1
B(  0-C ,  1-C ) :   1.0216 B(  0-C ,  5-C ) :   1.0188 B(  0-C ,  9-C ) :   1.0225
B(  0-C , 16-H ) :   0.9678 B(  1-C ,  2-C ) :   1.0331 B(  1-C , 17-H ) :   0.9691
B(  1-C , 18-H ) :   0.9658 B(  2-C ,  3-C ) :   0.9724 B(  2-C ,  8-C ) :   1.0295
B(  2-C , 19-H ) :   0.9546 B(  3-C ,  4-C ) :   0.9993 B(  3-C , 10-C ) :   1.0440
B(  3-C , 14-N ) :   0.9209 B(  4-C ,  5-C ) :   1.0218 B(  4-C ,  6-C ) :   1.0335
B(  4-C , 20-H ) :   0.9516 B(  5-C , 21-H ) :   0.9679 B(  5-C , 22-H ) :   0.9652
B(  6-C ,  7-C ) :   1.0218 B(  6-C , 23-H ) :   0.9660 B(  6-C , 24-H ) :   0.9631
B(  7-C ,  8-C ) :   1.0195 B(  7-C ,  9-C ) :   1.0228 B(  7-C , 25-H ) :   0.9676
B(  8-C , 26-H ) :   0.9676 B(  8-C , 27-H ) :   0.9708 B(  9-C , 28-H ) :   0.9667
B(  9-C , 29-H ) :   0.9671 B( 10-C , 11-C ) :   1.0683 B( 10-C , 30-H ) :   0.9551
B( 10-C , 31-H ) :   0.9571 B( 11-C , 12-C ) :   1.0213 B( 11-C , 32-H ) :   0.9710
B( 11-C , 33-H ) :   0.9652 B( 12-C , 13-C ) :   1.0488 B( 12-C , 34-H ) :   0.9690
B( 12-C , 35-H ) :   0.9671 B( 13-C , 14-N ) :   1.0144 B( 13-C , 36-H ) :   0.9689
B( 13-C , 37-H ) :   0.9795 B( 14-N , 15-C ) :   1.0046 B( 15-C , 38-H ) :   0.9862
B( 15-C , 39-H ) :   0.9851 B( 15-C , 40-H ) :   0.9712

E(0)                                       ...   -637.031526832
E(0)                                       ...   -637.031526832
E(CORR)(strong-pairs)                      ...     -2.454001201
E(CORR)(weak-pairs)                        ...     -0.002777510
E(CORR)(corrected)                         ...     -2.456778710
E(TOT)                                     ...   -639.488305542
E(CCSD(T))                                 ...   -639.573572032
FINAL SINGLE POINT ENERGY      -639.573572031688

DIPOLE MOMENT
-------------
                                X             Y             Z
Electronic contribution:      1.95251       0.18353       1.71370
Nuclear contribution   :     -2.16513      -0.32350      -1.96211
                        -----------------------------------------
Total Dipole Moment    :     -0.21262      -0.13997      -0.24841
                        -----------------------------------------
Magnitude (a.u.)       :      0.35568
Magnitude (Debye)      :      0.90407

Rotational constants in cm-1:     0.034525     0.015725     0.014141
Rotational constants in MHz :  1035.048239   471.426525   423.951299

                             ****ORCA TERMINATED NORMALLY****
TOTAL RUN TIME: 0 days 0 hours 43 minutes 42 seconds 233 msec
