                         Program Version 4.1.x  -  STABLE  -
|  1> ! RHF DLPNO-CCSD(T) cc-pVDZ RIJK cc-pVTZ/JK cc-pVDZ/C
|  2> ! KDIIS SOSCF TightSCF TightPNO
|  3>
|  4> %pal nprocs 4 end
|  5>
|  6> %maxcore 8000
|  7>
|  8> %scf maxiter 300
|  9>      shift shift 0.2 erroff 0.1 end
| 10> end
| 11>
| 12> * xyzfile 0 1 N_Me_ethylamine_g_plus.xyz
| 13>
| 14>
| 15>                          ****END OF INPUT****

CARTESIAN COORDINATES (ANGSTROEM)
---------------------------------
  C     -1.566750    0.543510   -0.117720
  C     -0.645640   -0.616480    0.297840
  N      0.700710   -0.628240   -0.275510
  C      1.561520    0.484400    0.114720
  H     -1.122190   -1.567890    0.031130
  H     -0.534490   -0.623010    1.390380
  H     -2.552730    0.437030    0.349970
  H     -1.162820    1.516480    0.180970
  H      0.650080   -0.698500   -1.288380
  H     -1.713000    0.558530   -1.204820
  H      2.548570    0.351700   -0.339300
  H      1.191970    1.486540   -0.163180
  H      1.694820    0.468130    1.202830

 Total Charge           Charge          ....    0
 Multiplicity           Mult            ....    1
 Number of Electrons    NEL             ....   34
 Basis Dimension        Dim             ....  101

ORBITAL ENERGIES
----------------

  NO   OCC          E(Eh)            E(eV)
   0   2.0000     -15.536143      -422.7600
   1   2.0000     -11.249240      -306.1074
   2   2.0000     -11.245472      -306.0048
   3   2.0000     -11.218607      -305.2738
   4   2.0000      -1.191578       -32.4245
   5   2.0000      -0.998100       -27.1597
   6   2.0000      -0.901426       -24.5290
   7   2.0000      -0.810861       -22.0647
   8   2.0000      -0.655164       -17.8279
   9   2.0000      -0.612710       -16.6727
  10   2.0000      -0.589092       -16.0300
  11   2.0000      -0.551671       -15.0117
  12   2.0000      -0.537472       -14.6254
  13   2.0000      -0.516525       -14.0554
  14   2.0000      -0.488092       -13.2817
  15   2.0000      -0.476684       -12.9712
  16   2.0000      -0.356387        -9.6978
  17   0.0000       0.180115         4.9012
  18   0.0000       0.215010         5.8507
  19   0.0000       0.225151         6.1267
  20   0.0000       0.231527         6.3002
  21   0.0000       0.261982         7.1289

MULLIKEN ATOMIC CHARGES
-----------------------
   0 C :   -0.067110
   1 C :    0.067233
   2 N :   -0.386202
   3 C :    0.082834
   4 H :    0.027235
   5 H :    0.028662
   6 H :    0.027796
   7 H :    0.032137
   8 H :    0.092625
   9 H :    0.023389
  10 H :    0.031923
  11 H :    0.009179
  12 H :    0.030298
Sum of atomic charges:    0.0000000

LOEWDIN ATOMIC CHARGES
----------------------
   0 C :   -0.069211
   1 C :   -0.021323
   2 N :   -0.043842
   3 C :   -0.028085
   4 H :    0.018212
   5 H :    0.017041
   6 H :    0.023168
   7 H :    0.018553
   8 H :    0.032129
   9 H :    0.016851
  10 H :    0.019824
  11 H :   -0.001551
  12 H :    0.018234

  Mayer bond orders larger than 0.1
B(  0-C ,  1-C ) :   1.0482 B(  0-C ,  6-H ) :   0.9794 B(  0-C ,  7-H ) :   0.9805
B(  0-C ,  9-H ) :   0.9802 B(  1-C ,  2-N ) :   1.0261 B(  1-C ,  4-H ) :   0.9785
B(  1-C ,  5-H ) :   0.9724 B(  2-N ,  3-C ) :   1.0225 B(  2-N ,  8-H ) :   0.9736
B(  3-C , 10-H ) :   0.9908 B(  3-C , 11-H ) :   0.9758 B(  3-C , 12-H ) :   0.9844

E(0)                                       ...   -173.288877440
E(0)                                       ...   -173.288877440
E(CORR)(strong-pairs)                      ...     -0.668223725
E(CORR)(weak-pairs)                        ...     -0.000160537
E(CORR)(corrected)                         ...     -0.668384262
E(TOT)                                     ...   -173.957261702
E(CCSD(T))                                 ...   -173.975165926
FINAL SINGLE POINT ENERGY      -173.975165925726

DIPOLE MOMENT
-------------
                                X             Y             Z
Electronic contribution:      0.91262      -1.79062      -0.34601
Nuclear contribution   :     -1.07555       2.07981       0.17064
                        -----------------------------------------
Total Dipole Moment    :     -0.16293       0.28920      -0.17537
                        -----------------------------------------
Magnitude (a.u.)       :      0.37541
Magnitude (Debye)      :      0.95422

Rotational constants in cm-1:     0.489614     0.162556     0.141017
Rotational constants in MHz : 14678.260419  4873.316312  4227.578729

                             ****ORCA TERMINATED NORMALLY****
TOTAL RUN TIME: 0 days 0 hours 0 minutes 45 seconds 765 msec
