                         Program Version 4.1.x  -  STABLE  -
|  1> ! RHF DLPNO-CCSD(T) cc-pVDZ RIJK cc-pVTZ/JK cc-pVDZ/C
|  2> ! KDIIS SOSCF TightSCF TightPNO
|  3>
|  4> %pal nprocs 4 end
|  5>
|  6> %maxcore 8000
|  7>
|  8> %scf maxiter 300
|  9>      shift shift 0.2 erroff 0.1 end
| 10> end
| 11>
| 12> * xyzfile 0 1 N_methylformamide_E.xyz
| 13>
| 14>
| 15>                          ****END OF INPUT****

CARTESIAN COORDINATES (ANGSTROEM)
---------------------------------
  C      1.753160    0.116030    0.000960
  N      0.397780   -0.407400   -0.000340
  C     -0.732260    0.348810    0.000240
  O     -1.871380   -0.095240   -0.000020
  H      0.255270   -1.410360   -0.001570
  H      2.308210   -0.210000   -0.885460
  H      1.713540    1.208370   -0.012320
  H      2.304200   -0.199020    0.893060
  H     -0.520090    1.435670    0.001600

 Total Charge           Charge          ....    0
 Multiplicity           Mult            ....    1
 Number of Electrons    NEL             ....   32
 Basis Dimension        Dim             ....   81

ORBITAL ENERGIES
----------------

  NO   OCC          E(Eh)            E(eV)
   0   2.0000     -20.518079      -558.3253
   1   2.0000     -15.592128      -424.2834
   2   2.0000     -11.354000      -308.9581
   3   2.0000     -11.288233      -307.1684
   4   2.0000      -1.370344       -37.2890
   5   2.0000      -1.233092       -33.5541
   6   2.0000      -0.962492       -26.1907
   7   2.0000      -0.839893       -22.8547
   8   2.0000      -0.682179       -18.5630
   9   2.0000      -0.669236       -18.2108
  10   2.0000      -0.628553       -17.1038
  11   2.0000      -0.584874       -15.9152
  12   2.0000      -0.567176       -15.4336
  13   2.0000      -0.533380       -14.5140
  14   2.0000      -0.421095       -11.4586
  15   2.0000      -0.387024       -10.5315
  16   0.0000       0.175746         4.7823
  17   0.0000       0.193846         5.2748
  18   0.0000       0.199514         5.4291
  19   0.0000       0.237960         6.4752
  20   0.0000       0.248089         6.7508

MULLIKEN ATOMIC CHARGES
-----------------------
   0 C :    0.112430
   1 N :   -0.373448
   2 C :    0.391813
   3 O :   -0.413775
   4 H :    0.127920
   5 H :    0.046502
   6 H :    0.043626
   7 H :    0.046970
   8 H :    0.017963
Sum of atomic charges:    0.0000000

LOEWDIN ATOMIC CHARGES
----------------------
   0 C :   -0.002004
   1 N :    0.044254
   2 C :   -0.004326
   3 O :   -0.172643
   4 H :    0.062456
   5 H :    0.022990
   6 H :    0.028142
   7 H :    0.022704
   8 H :   -0.001573

  Mayer bond orders larger than 0.1
B(  0-C ,  1-N ) :   0.9799 B(  0-C ,  5-H ) :   0.9830 B(  0-C ,  6-H ) :   0.9820
B(  0-C ,  7-H ) :   0.9828 B(  1-N ,  2-C ) :   1.2193 B(  1-N ,  4-H ) :   0.9567
B(  2-C ,  3-O ) :   2.0244 B(  2-C ,  8-H ) :   0.9535

E(0)                                       ...   -207.976493039
E(0)                                       ...   -207.976493039
E(CORR)(strong-pairs)                      ...     -0.657245976
E(CORR)(weak-pairs)                        ...     -0.000124857
E(CORR)(corrected)                         ...     -0.657370833
E(TOT)                                     ...   -208.633863872
E(CCSD(T))                                 ...   -208.653286269
FINAL SINGLE POINT ENERGY      -208.653286269300

DIPOLE MOMENT
-------------
                                X             Y             Z
Electronic contribution:     -4.40566      -0.66702       0.00382
Nuclear contribution   :      6.13922       0.83509      -0.00477
                        -----------------------------------------
Total Dipole Moment    :      1.73356       0.16806      -0.00095
                        -----------------------------------------
Magnitude (a.u.)       :      1.74169
Magnitude (Debye)      :      4.42702

Rotational constants in cm-1:     1.489859     0.144566     0.135148
Rotational constants in MHz : 44664.855106  4333.972332  4051.627652

                             ****ORCA TERMINATED NORMALLY****
TOTAL RUN TIME: 0 days 0 hours 0 minutes 25 seconds 389 msec
