                         Program Version 4.1.x  -  STABLE  -
|  1> ! RHF DLPNO-CCSD(T) cc-pVDZ RIJK cc-pVTZ/JK cc-pVDZ/C
|  2> ! KDIIS SOSCF TightSCF TightPNO
|  3>
|  4> %pal nprocs 4 end
|  5>
|  6> %maxcore 8000
|  7>
|  8> %scf maxiter 300
|  9>      shift shift 0.2 erroff 0.1 end
| 10> end
| 11>
| 12> * xyzfile 0 1 N_me_piperidine_ch_eq.xyz
| 13>
| 14>
| 15>                          ****END OF INPUT****

CARTESIAN COORDINATES (ANGSTROEM)
---------------------------------
  C      1.876800    0.000000    0.255900
  C      1.146800    1.247100   -0.228500
  C      1.146800   -1.247100   -0.228500
  C     -0.316000    1.194900    0.182600
  C     -0.316000   -1.194900    0.182600
  N     -0.960900    0.000000   -0.344000
  C     -2.369900   -0.000000    0.001400
  H      1.900400   -0.000000    1.349300
  H      2.912000   -0.000000   -0.086600
  H      1.200300    1.305200   -1.317200
  H      1.608400    2.149000    0.175900
  H      1.608400   -2.149000    0.175900
  H      1.200300   -1.305200   -1.317200
  H     -0.851700    2.065500   -0.198400
  H     -0.388200    1.222000    1.286200
  H     -0.388200   -1.222000    1.286200
  H     -0.851700   -2.065500   -0.198400
  H     -2.533700    0.000000    1.091000
  H     -2.850600    0.883600   -0.415900
  H     -2.850600   -0.883600   -0.415900

 Total Charge           Charge          ....    0
 Multiplicity           Mult            ....    1
 Number of Electrons    NEL             ....   56
 Basis Dimension        Dim             ....  163

ORBITAL ENERGIES
----------------

  NO   OCC          E(Eh)            E(eV)
   0   2.0000     -15.540229      -422.8711
   1   2.0000     -11.243137      -305.9413
   2   2.0000     -11.243122      -305.9409
   3   2.0000     -11.242123      -305.9137
   4   2.0000     -11.217625      -305.2471
   5   2.0000     -11.215967      -305.2020
   6   2.0000     -11.215842      -305.1986
   7   2.0000      -1.234162       -33.5833
   8   2.0000      -1.071911       -29.1682
   9   2.0000      -1.013523       -27.5794
  10   2.0000      -0.931722       -25.3534
  11   2.0000      -0.845273       -23.0011
  12   2.0000      -0.830101       -22.5882
  13   2.0000      -0.754023       -20.5180
  14   2.0000      -0.657901       -17.9024
  15   2.0000      -0.622740       -16.9456
  16   2.0000      -0.621688       -16.9170
  17   2.0000      -0.607488       -16.5306
  18   2.0000      -0.576016       -15.6742
  19   2.0000      -0.550534       -14.9808
  20   2.0000      -0.533244       -14.5103
  21   2.0000      -0.528881       -14.3916
  22   2.0000      -0.498192       -13.5565
  23   2.0000      -0.484497       -13.1838
  24   2.0000      -0.462306       -12.5800
  25   2.0000      -0.439816       -11.9680
  26   2.0000      -0.438386       -11.9291
  27   2.0000      -0.352472        -9.5913
  28   0.0000       0.183957         5.0057
  29   0.0000       0.201775         5.4906
  30   0.0000       0.211693         5.7605
  31   0.0000       0.214406         5.8343
  32   0.0000       0.250373         6.8130

MULLIKEN ATOMIC CHARGES
-----------------------
   0 C :   -0.056764
   1 C :   -0.011927
   2 C :   -0.011927
   3 C :    0.109099
   4 C :    0.109099
   5 N :   -0.498827
   6 C :    0.118670
   7 H :    0.018845
   8 H :    0.022705
   9 H :    0.029943
  10 H :    0.019367
  11 H :    0.019367
  12 H :    0.029943
  13 H :    0.023707
  14 H :   -0.001222
  15 H :   -0.001222
  16 H :    0.023707
  17 H :   -0.000289
  18 H :    0.028864
  19 H :    0.028864
Sum of atomic charges:   -0.0000000

LOEWDIN ATOMIC CHARGES
----------------------
   0 C :   -0.033651
   1 C :   -0.031889
   2 C :   -0.031889
   3 C :   -0.009915
   4 C :   -0.009915
   5 N :   -0.031378
   6 C :   -0.019006
   7 H :    0.015235
   8 H :    0.018199
   9 H :    0.019714
  10 H :    0.019316
  11 H :    0.019316
  12 H :    0.019714
  13 H :    0.016097
  14 H :   -0.004258
  15 H :   -0.004258
  16 H :    0.016097
  17 H :   -0.001458
  18 H :    0.016964
  19 H :    0.016964

  Mayer bond orders larger than 0.1
B(  0-C ,  1-C ) :   1.0493 B(  0-C ,  2-C ) :   1.0493 B(  0-C ,  7-H ) :   0.9633
B(  0-C ,  8-H ) :   0.9740 B(  1-C ,  3-C ) :   1.0591 B(  1-C ,  9-H ) :   0.9592
B(  1-C , 10-H ) :   0.9686 B(  2-C ,  4-C ) :   1.0591 B(  2-C , 11-H ) :   0.9686
B(  2-C , 12-H ) :   0.9592 B(  3-C ,  5-N ) :   0.9864 B(  3-C , 13-H ) :   0.9737
B(  3-C , 14-H ) :   0.9531 B(  4-C ,  5-N ) :   0.9864 B(  4-C , 15-H ) :   0.9531
B(  4-C , 16-H ) :   0.9737 B(  5-N ,  6-C ) :   1.0135 B(  6-C , 17-H ) :   0.9703
B(  6-C , 18-H ) :   0.9877 B(  6-C , 19-H ) :   0.9877

E(0)                                       ...   -289.238970290
E(0)                                       ...   -289.238970290
E(CORR)(strong-pairs)                      ...     -1.106946944
E(CORR)(weak-pairs)                        ...     -0.000472671
E(CORR)(corrected)                         ...     -1.107419615
E(TOT)                                     ...   -290.346389905
E(CCSD(T))                                 ...   -290.380000171
FINAL SINGLE POINT ENERGY      -290.380000170555

DIPOLE MOMENT
-------------
                                X             Y             Z
Electronic contribution:      0.31154      -0.00000      -1.26810
Nuclear contribution   :     -0.30805      -0.00000       1.49831
                        -----------------------------------------
Total Dipole Moment    :      0.00349      -0.00000       0.23021
                        -----------------------------------------
Magnitude (a.u.)       :      0.23024
Magnitude (Debye)      :      0.58522

Rotational constants in cm-1:     0.149947     0.077878     0.056340
Rotational constants in MHz :  4495.283357  2334.728367  1689.019788

                             ****ORCA TERMINATED NORMALLY****
TOTAL RUN TIME: 0 days 0 hours 3 minutes 36 seconds 803 msec
