                         Program Version 4.1.x  -  STABLE  -
|  1> ! RHF DLPNO-CCSD(T) cc-pVDZ RIJK cc-pVTZ/JK cc-pVDZ/C
|  2> ! KDIIS SOSCF TightSCF TightPNO
|  3>
|  4> %pal nprocs 4 end
|  5>
|  6> %maxcore 8000
|  7>
|  8> %scf maxiter 300
|  9>      shift shift 0.2 erroff 0.1 end
| 10> end
| 11>
| 12> * xyzfile 0 1 N_Me_piperidine_ax.xyz
| 13>
| 14>
| 15>                          ****END OF INPUT****

CARTESIAN COORDINATES (ANGSTROEM)
---------------------------------
  C     -1.797590    0.000020   -0.162700
  C     -0.937390    1.265360   -0.321700
  C      0.281320    1.209930    0.620500
  N      1.100920   -0.000010    0.478230
  C      0.281290   -1.209950    0.620490
  C     -0.937440   -1.265330   -0.321690
  C      1.957960   -0.000010   -0.702920
  H      0.927100    2.083550    0.474380
  H     -0.073660    1.245620    1.661080
  H     -0.073680   -1.245660    1.661070
  H      0.927050   -2.083570    0.474340
  H     -0.600570    1.354250   -1.363490
  H     -1.528020    2.164990   -0.105650
  H     -1.528070   -2.164960   -0.105670
  H     -0.600640   -1.354220   -1.363490
  H     -2.253440    0.000020    0.838980
  H     -2.625160    0.000010   -0.882460
  H      2.603660    0.884500   -0.678360
  H      2.603630   -0.884550   -0.678390
  H      1.426510    0.000010   -1.671790

 Total Charge           Charge          ....    0
 Multiplicity           Mult            ....    1
 Number of Electrons    NEL             ....   56
 Basis Dimension        Dim             ....  163

ORBITAL ENERGIES
----------------

  NO   OCC          E(Eh)            E(eV)
   0   2.0000     -15.537334      -422.7923
   1   2.0000     -11.246117      -306.0224
   2   2.0000     -11.246100      -306.0219
   3   2.0000     -11.244938      -305.9903
   4   2.0000     -11.222716      -305.3856
   5   2.0000     -11.219799      -305.3063
   6   2.0000     -11.219730      -305.3044
   7   2.0000      -1.220046       -33.1992
   8   2.0000      -1.060472       -28.8569
   9   2.0000      -1.007162       -27.4063
  10   2.0000      -0.936134       -25.4735
  11   2.0000      -0.842867       -22.9356
  12   2.0000      -0.831776       -22.6338
  13   2.0000      -0.744654       -20.2631
  14   2.0000      -0.654084       -17.7985
  15   2.0000      -0.627252       -17.0684
  16   2.0000      -0.610822       -16.6213
  17   2.0000      -0.599094       -16.3022
  18   2.0000      -0.566119       -15.4049
  19   2.0000      -0.559671       -15.2294
  20   2.0000      -0.526325       -14.3220
  21   2.0000      -0.508516       -13.8374
  22   2.0000      -0.499658       -13.5964
  23   2.0000      -0.481794       -13.1103
  24   2.0000      -0.479314       -13.0428
  25   2.0000      -0.451114       -12.2754
  26   2.0000      -0.441399       -12.0111
  27   2.0000      -0.332699        -9.0532
  28   0.0000       0.175800         4.7838
  29   0.0000       0.201121         5.4728
  30   0.0000       0.216757         5.8982
  31   0.0000       0.219746         5.9796
  32   0.0000       0.240109         6.5337

MULLIKEN ATOMIC CHARGES
-----------------------
   0 C :   -0.051894
   1 C :   -0.057089
   2 C :    0.125365
   3 N :   -0.502672
   4 C :    0.125369
   5 C :   -0.057088
   6 C :    0.109112
   7 H :    0.024501
   8 H :    0.025281
   9 H :    0.025281
  10 H :    0.024501
  11 H :    0.024828
  12 H :    0.022988
  13 H :    0.022985
  14 H :    0.024824
  15 H :    0.022131
  16 H :    0.024125
  17 H :    0.030675
  18 H :    0.030675
  19 H :    0.006103
Sum of atomic charges:    0.0000000

LOEWDIN ATOMIC CHARGES
----------------------
   0 C :   -0.034301
   1 C :   -0.045140
   2 C :   -0.008006
   3 N :   -0.037907
   4 C :   -0.007998
   5 C :   -0.045144
   6 C :   -0.023173
   7 H :    0.016598
   8 H :    0.015605
   9 H :    0.015605
  10 H :    0.016598
  11 H :    0.014919
  12 H :    0.019708
  13 H :    0.019707
  14 H :    0.014919
  15 H :    0.015672
  16 H :    0.018207
  17 H :    0.018934
  18 H :    0.018935
  19 H :   -0.003740

  Mayer bond orders larger than 0.1
B(  0-C ,  1-C ) :   1.0395 B(  0-C ,  5-C ) :   1.0395 B(  0-C , 15-H ) :   0.9660
B(  0-C , 16-H ) :   0.9763 B(  1-C ,  2-C ) :   1.0303 B(  1-C , 11-H ) :   0.9639
B(  1-C , 12-H ) :   0.9709 B(  2-C ,  3-N ) :   1.0044 B(  2-C ,  7-H ) :   0.9784
B(  2-C ,  8-H ) :   0.9722 B(  3-N ,  4-C ) :   1.0044 B(  3-N ,  6-C ) :   1.0029
B(  4-C ,  5-C ) :   1.0303 B(  4-C ,  9-H ) :   0.9722 B(  4-C , 10-H ) :   0.9784
B(  5-C , 13-H ) :   0.9709 B(  5-C , 14-H ) :   0.9639 B(  6-C , 17-H ) :   0.9881
B(  6-C , 18-H ) :   0.9881 B(  6-C , 19-H ) :   0.9712

E(0)                                       ...   -289.232813601
E(0)                                       ...   -289.232813601
E(CORR)(strong-pairs)                      ...     -1.109110895
E(CORR)(weak-pairs)                        ...     -0.000477673
E(CORR)(corrected)                         ...     -1.109588567
E(TOT)                                     ...   -290.342402169
E(CCSD(T))                                 ...   -290.376395973
FINAL SINGLE POINT ENERGY      -290.376395973484

DIPOLE MOMENT
-------------
                                X             Y             Z
Electronic contribution:      0.63515       0.00001       1.59526
Nuclear contribution   :     -0.83652      -0.00002      -1.84163
                        -----------------------------------------
Total Dipole Moment    :     -0.20138      -0.00001      -0.24637
                        -----------------------------------------
Magnitude (a.u.)       :      0.31820
Magnitude (Debye)      :      0.80880

Rotational constants in cm-1:     0.123632     0.086015     0.064813
Rotational constants in MHz :  3706.404363  2578.658134  1943.040273

                             ****ORCA TERMINATED NORMALLY****
TOTAL RUN TIME: 0 days 0 hours 2 minutes 50 seconds 449 msec
