                         Program Version 4.1.x  -  STABLE  -
|  1> ! RHF DLPNO-CCSD(T) cc-pVDZ RIJK cc-pVTZ/JK cc-pVDZ/C
|  2> ! KDIIS SOSCF TightSCF TightPNO
|  3>
|  4> %pal nprocs 4 end
|  5>
|  6> %maxcore 8000
|  7>
|  8> %scf maxiter 300
|  9>      shift shift 0.2 erroff 0.1 end
| 10> end
| 11>
| 12> * xyzfile 0 1 N_Me_Acetamide_E.xyz
| 13>
| 14>
| 15>                          ****END OF INPUT****

CARTESIAN COORDINATES (ANGSTROEM)
---------------------------------
  C      0.807080    1.326640   -0.000000
  C      0.597040   -0.177830    0.000020
  N     -0.687430   -0.682760   -0.000020
  C     -1.869970    0.142850    0.000010
  O      1.541260   -0.930900    0.000000
  H      1.893240    1.574220    0.000230
  H      0.357560    1.786040   -0.909300
  H      0.357150    1.786140    0.909040
  H     -0.750790   -1.703760    0.000000
  H     -1.908970    0.777670    0.914010
  H     -1.908610    0.778320   -0.913570
  H     -2.762460   -0.522040   -0.000420

 Total Charge           Charge          ....    0
 Multiplicity           Mult            ....    1
 Number of Electrons    NEL             ....   40
 Basis Dimension        Dim             ....  105

ORBITAL ENERGIES
----------------

  NO   OCC          E(Eh)            E(eV)
   0   2.0000     -20.507533      -558.0384
   1   2.0000     -15.578461      -423.9115
   2   2.0000     -11.346618      -308.7572
   3   2.0000     -11.284684      -307.0719
   4   2.0000     -11.247912      -306.0713
   5   2.0000      -1.377988       -37.4969
   6   2.0000      -1.219843       -33.1936
   7   2.0000      -0.995732       -27.0952
   8   2.0000      -0.941680       -25.6244
   9   2.0000      -0.772688       -21.0259
  10   2.0000      -0.665573       -18.1112
  11   2.0000      -0.658949       -17.9309
  12   2.0000      -0.635424       -17.2908
  13   2.0000      -0.576075       -15.6758
  14   2.0000      -0.571666       -15.5558
  15   2.0000      -0.550871       -14.9900
  16   2.0000      -0.546131       -14.8610
  17   2.0000      -0.508568       -13.8389
  18   2.0000      -0.408539       -11.1169
  19   2.0000      -0.378116       -10.2891
  20   0.0000       0.165182         4.4948
  21   0.0000       0.194557         5.2942
  22   0.0000       0.203104         5.5267
  23   0.0000       0.220264         5.9937
  24   0.0000       0.225629         6.1397

MULLIKEN ATOMIC CHARGES
-----------------------
   0 C :   -0.090527
   1 C :    0.307128
   2 N :   -0.392576
   3 C :    0.093316
   4 O :   -0.396807
   5 H :    0.078607
   6 H :    0.061270
   7 H :    0.061249
   8 H :    0.134755
   9 H :    0.044150
  10 H :    0.044158
  11 H :    0.055276
Sum of atomic charges:   -0.0000000

LOEWDIN ATOMIC CHARGES
----------------------
   0 C :   -0.068558
   1 C :   -0.046878
   2 N :    0.027483
   3 C :   -0.019053
   4 O :   -0.155998
   5 H :    0.046958
   6 H :    0.037697
   7 H :    0.037687
   8 H :    0.067398
   9 H :    0.020109
  10 H :    0.020122
  11 H :    0.033033

  Mayer bond orders larger than 0.1
B(  0-C ,  1-C ) :   1.0159 B(  0-C ,  5-H ) :   0.9790 B(  0-C ,  6-H ) :   0.9661
B(  0-C ,  7-H ) :   0.9661 B(  1-C ,  2-N ) :   1.1723 B(  1-C ,  4-O ) :   2.0520
B(  2-N ,  3-C ) :   0.9842 B(  2-N ,  8-H ) :   0.9546 B(  3-C ,  9-H ) :   0.9791
B(  3-C , 10-H ) :   0.9791 B(  3-C , 11-H ) :   0.9868

E(0)                                       ...   -247.018239358
E(0)                                       ...   -247.018239358
E(CORR)(strong-pairs)                      ...     -0.812639307
E(CORR)(weak-pairs)                        ...     -0.000229646
E(CORR)(corrected)                         ...     -0.812868953
E(TOT)                                     ...   -247.831108311
E(CCSD(T))                                 ...   -247.855134894
FINAL SINGLE POINT ENERGY      -247.855134893527

DIPOLE MOMENT
-------------
                                X             Y             Z
Electronic contribution:      3.43769      -3.85742       0.00001
Nuclear contribution   :     -4.83310       4.58158      -0.00002
                        -----------------------------------------
Total Dipole Moment    :     -1.39541       0.72416      -0.00001
                        -----------------------------------------
Magnitude (a.u.)       :      1.57212
Magnitude (Debye)      :      3.99602

Rotational constants in cm-1:     0.288787     0.138778     0.097361
Rotational constants in MHz :  8657.626939  4160.459456  2918.799361

                             ****ORCA TERMINATED NORMALLY****
TOTAL RUN TIME: 0 days 0 hours 1 minutes 8 seconds 382 msec
