                         Program Version 4.1.x  -  STABLE  -
|  1> ! RHF DLPNO-CCSD(T) cc-pVDZ RIJK cc-pVTZ/JK cc-pVDZ/C
|  2> ! KDIIS SOSCF TightSCF TightPNO
|  3>
|  4> %pal nprocs 4 end
|  5>
|  6> %maxcore 8000
|  7>
|  8> %scf maxiter 300
|  9>      shift shift 0.2 erroff 0.1 end
| 10> end
| 11>
| 12> * xyzfile 0 1 N_me_piperidine_ch_NI.xyz
| 13>
| 14>
| 15>                          ****END OF INPUT****

CARTESIAN COORDINATES (ANGSTROEM)
---------------------------------
  C     -1.867800   -0.000100   -0.086200
  C     -1.091300    1.254400    0.305900
  C     -1.091100   -1.254600    0.305800
  C      0.280700    1.250500   -0.363400
  C      0.280900   -1.250500   -0.363400
  N      0.963200    0.000300   -0.138900
  C      2.336700   -0.000000    0.294500
  H     -2.028800   -0.000100   -1.169200
  H     -2.853000   -0.000200    0.381100
  H     -0.959000    1.271000    1.390200
  H     -1.642000    2.153000    0.021300
  H     -1.641700   -2.153200    0.021200
  H     -0.958800   -1.271200    1.390100
  H      0.899700    2.055700    0.030400
  H      0.138300    1.447000   -1.440100
  H      0.138700   -1.446900   -1.440100
  H      0.900100   -2.055400    0.030500
  H      2.859300   -0.874300   -0.097100
  H      2.858000    0.877000   -0.092500
  H      2.459100   -0.002800    1.386000

 Total Charge           Charge          ....    0
 Multiplicity           Mult            ....    1
 Number of Electrons    NEL             ....   56
 Basis Dimension        Dim             ....  163

ORBITAL ENERGIES
----------------

  NO   OCC          E(Eh)            E(eV)
   0   2.0000     -15.521786      -422.3693
   1   2.0000     -11.245761      -306.0127
   2   2.0000     -11.245752      -306.0125
   3   2.0000     -11.245721      -306.0116
   4   2.0000     -11.216084      -305.2052
   5   2.0000     -11.213359      -305.1310
   6   2.0000     -11.213276      -305.1288
   7   2.0000      -1.220772       -33.2189
   8   2.0000      -1.066163       -29.0118
   9   2.0000      -1.014565       -27.6077
  10   2.0000      -0.935906       -25.4673
  11   2.0000      -0.847007       -23.0482
  12   2.0000      -0.828257       -22.5380
  13   2.0000      -0.744869       -20.2689
  14   2.0000      -0.656059       -17.8523
  15   2.0000      -0.625422       -17.0186
  16   2.0000      -0.617617       -16.8062
  17   2.0000      -0.598791       -16.2939
  18   2.0000      -0.572367       -15.5749
  19   2.0000      -0.556814       -15.1517
  20   2.0000      -0.538323       -14.6485
  21   2.0000      -0.529179       -14.3997
  22   2.0000      -0.499472       -13.5913
  23   2.0000      -0.480025       -13.0621
  24   2.0000      -0.465386       -12.6638
  25   2.0000      -0.444971       -12.1083
  26   2.0000      -0.444365       -12.0918
  27   2.0000      -0.308273        -8.3885
  28   0.0000       0.179955         4.8968
  29   0.0000       0.208981         5.6867
  30   0.0000       0.211962         5.7678
  31   0.0000       0.218521         5.9463
  32   0.0000       0.248912         6.7732

MULLIKEN ATOMIC CHARGES
-----------------------
   0 C :   -0.063697
   1 C :   -0.032056
   2 C :   -0.032064
   3 C :    0.185463
   4 C :    0.185392
   5 N :   -0.600031
   6 C :    0.153937
   7 H :    0.018483
   8 H :    0.021681
   9 H :    0.019744
  10 H :    0.014488
  11 H :    0.014495
  12 H :    0.019763
  13 H :    0.020099
  14 H :    0.003117
  15 H :    0.003213
  16 H :    0.020106
  17 H :    0.019952
  18 H :    0.020011
  19 H :    0.007902
Sum of atomic charges:   -0.0000000

LOEWDIN ATOMIC CHARGES
----------------------
   0 C :   -0.034891
   1 C :   -0.035955
   2 C :   -0.035945
   3 C :   -0.003850
   4 C :   -0.003659
   5 N :   -0.034471
   6 C :   -0.016867
   7 H :    0.014826
   8 H :    0.017547
   9 H :    0.014909
  10 H :    0.016543
  11 H :    0.016541
  12 H :    0.014921
  13 H :    0.017861
  14 H :    0.001041
  15 H :    0.001089
  16 H :    0.017862
  17 H :    0.015123
  18 H :    0.015192
  19 H :    0.002182

  Mayer bond orders larger than 0.1
B(  0-C ,  1-C ) :   1.0495 B(  0-C ,  2-C ) :   1.0495 B(  0-C ,  7-H ) :   0.9628
B(  0-C ,  8-H ) :   0.9745 B(  1-C ,  3-C ) :   1.0434 B(  1-C ,  9-H ) :   0.9615
B(  1-C , 10-H ) :   0.9695 B(  2-C ,  4-C ) :   1.0435 B(  2-C , 11-H ) :   0.9695
B(  2-C , 12-H ) :   0.9615 B(  3-C ,  5-N ) :   0.9924 B(  3-C , 13-H ) :   0.9732
B(  3-C , 14-H ) :   0.9585 B(  4-C ,  5-N ) :   0.9922 B(  4-C , 15-H ) :   0.9585
B(  4-C , 16-H ) :   0.9732 B(  5-N ,  6-C ) :   1.0192 B(  6-C , 17-H ) :   0.9840
B(  6-C , 18-H ) :   0.9840 B(  6-C , 19-H ) :   0.9773

E(0)                                       ...   -289.224745899
E(0)                                       ...   -289.224745899
E(CORR)(strong-pairs)                      ...     -1.104355068
E(CORR)(weak-pairs)                        ...     -0.000474803
E(CORR)(corrected)                         ...     -1.104829871
E(TOT)                                     ...   -290.329575771
E(CCSD(T))                                 ...   -290.362844555
FINAL SINGLE POINT ENERGY      -290.362844555146

DIPOLE MOMENT
-------------
                                X             Y             Z
Electronic contribution:     -0.13407       0.00022      -0.38118
Nuclear contribution   :      0.18594      -0.00040       0.43615
                        -----------------------------------------
Total Dipole Moment    :      0.05187      -0.00018       0.05496
                        -----------------------------------------
Magnitude (a.u.)       :      0.07558
Magnitude (Debye)      :      0.19210

Rotational constants in cm-1:     0.139748     0.079056     0.056736
Rotational constants in MHz :  4189.552539  2370.030840  1700.905144

                             ****ORCA TERMINATED NORMALLY****
TOTAL RUN TIME: 0 days 0 hours 3 minutes 32 seconds 195 msec
