                         Program Version 4.1.x  -  STABLE  -
|  1> ! RHF DLPNO-CCSD(T) cc-pVDZ RIJK cc-pVTZ/JK cc-pVDZ/C
|  2> ! KDIIS SOSCF TightSCF TightPNO
|  3>
|  4> %pal nprocs 4 end
|  5>
|  6> %maxcore 8000
|  7>
|  8> %scf maxiter 300
|  9>      shift shift 0.2 erroff 0.1 end
| 10> end
| 11>
| 12> * xyzfile 0 1 N_methylacetamide_E.xyz
| 13>
| 14>
| 15>                          ****END OF INPUT****

CARTESIAN COORDINATES (ANGSTROEM)
---------------------------------
  C     -0.742300    1.353810   -0.000040
  C     -0.621270   -0.160500   -0.000020
  N      0.649280   -0.672810   -0.000260
  C      1.897310    0.075440    0.000120
  O     -1.603510   -0.899070    0.000120
  H      0.685690   -1.683270   -0.000020
  H     -0.263430    1.790320   -0.883640
  H     -1.800950    1.611890   -0.000160
  H     -0.263660    1.790280    0.883720
  H      2.725720   -0.635550   -0.000190
  H      1.998690    0.708380   -0.889380
  H      1.998680    0.707630    0.890170

 Total Charge           Charge          ....    0
 Multiplicity           Mult            ....    1
 Number of Electrons    NEL             ....   40
 Basis Dimension        Dim             ....  105

ORBITAL ENERGIES
----------------

  NO   OCC          E(Eh)            E(eV)
   0   2.0000     -20.507929      -558.0491
   1   2.0000     -15.581307      -423.9889
   2   2.0000     -11.349303      -308.8302
   3   2.0000     -11.283590      -307.0421
   4   2.0000     -11.241465      -305.8958
   5   2.0000      -1.364736       -37.1364
   6   2.0000      -1.221695       -33.2440
   7   2.0000      -1.002564       -27.2811
   8   2.0000      -0.952513       -25.9192
   9   2.0000      -0.777285       -21.1510
  10   2.0000      -0.668458       -18.1897
  11   2.0000      -0.659750       -17.9527
  12   2.0000      -0.635711       -17.2986
  13   2.0000      -0.577910       -15.7257
  14   2.0000      -0.571882       -15.5617
  15   2.0000      -0.556977       -15.1561
  16   2.0000      -0.551059       -14.9951
  17   2.0000      -0.506212       -13.7747
  18   2.0000      -0.409861       -11.1529
  19   2.0000      -0.380342       -10.3496
  20   0.0000       0.165382         4.5003
  21   0.0000       0.196957         5.3595
  22   0.0000       0.199715         5.4345
  23   0.0000       0.221666         6.0318
  24   0.0000       0.226843         6.1727

MULLIKEN ATOMIC CHARGES
-----------------------
   0 C :   -0.064800
   1 C :    0.305374
   2 N :   -0.382524
   3 C :    0.114951
   4 O :   -0.418749
   5 H :    0.127454
   6 H :    0.056822
   7 H :    0.071435
   8 H :    0.056825
   9 H :    0.051807
  10 H :    0.040708
  11 H :    0.040696
Sum of atomic charges:    0.0000000

LOEWDIN ATOMIC CHARGES
----------------------
   0 C :   -0.061288
   1 C :   -0.031402
   2 N :    0.037878
   3 C :   -0.006712
   4 O :   -0.183353
   5 H :    0.061043
   6 H :    0.035619
   7 H :    0.041949
   8 H :    0.035627
   9 H :    0.031846
  10 H :    0.019402
  11 H :    0.019389

  Mayer bond orders larger than 0.1
B(  0-C ,  1-C ) :   1.0153 B(  0-C ,  6-H ) :   0.9666 B(  0-C ,  7-H ) :   0.9796
B(  0-C ,  8-H ) :   0.9666 B(  1-C ,  2-N ) :   1.1893 B(  1-C ,  4-O ) :   2.0275
B(  2-N ,  3-C ) :   0.9801 B(  2-N ,  5-H ) :   0.9589 B(  3-C ,  9-H ) :   0.9873
B(  3-C , 10-H ) :   0.9804 B(  3-C , 11-H ) :   0.9804

E(0)                                       ...   -247.021289908
E(0)                                       ...   -247.021289908
E(CORR)(strong-pairs)                      ...     -0.812073047
E(CORR)(weak-pairs)                        ...     -0.000228252
E(CORR)(corrected)                         ...     -0.812301300
E(TOT)                                     ...   -247.833591208
E(CCSD(T))                                 ...   -247.857717629
FINAL SINGLE POINT ENERGY      -247.857717629457

DIPOLE MOMENT
-------------
                                X             Y             Z
Electronic contribution:     -3.65570      -3.66313      -0.00036
Nuclear contribution   :      5.19962       4.39008       0.00051
                        -----------------------------------------
Total Dipole Moment    :      1.54392       0.72694       0.00016
                        -----------------------------------------
Magnitude (a.u.)       :      1.70650
Magnitude (Debye)      :      4.33758

Rotational constants in cm-1:     0.291907     0.135975     0.096118
Rotational constants in MHz :  8751.149703  4076.423307  2881.533768

                             ****ORCA TERMINATED NORMALLY****
TOTAL RUN TIME: 0 days 0 hours 1 minutes 1 seconds 753 msec
