                         Program Version 4.1.x  -  STABLE  -
|  1> ! RHF DLPNO-CCSD(T) cc-pVDZ RIJK cc-pVTZ/JK cc-pVDZ/C
|  2> ! KDIIS SOSCF TightSCF TightPNO
|  3>
|  4> %pal nprocs 4 end
|  5>
|  6> %maxcore 8000
|  7>
|  8> %scf maxiter 300
|  9>      shift shift 0.2 erroff 0.1 end
| 10> end
| 11>
| 12> * xyzfile 0 1 N_methylpyrrolidine.xyz
| 13>
| 14>
| 15>                          ****END OF INPUT****

CARTESIAN COORDINATES (ANGSTROEM)
---------------------------------
  C     -1.490570    0.770310   -0.058760
  C     -1.490580   -0.770310   -0.058750
  C     -0.018070   -1.149230    0.161950
  C     -0.018060    1.149230    0.161950
  N      0.708060    0.000000   -0.334360
  C      2.119900   -0.000000   -0.024480
  H     -1.846110   -1.156740   -1.044160
  H     -2.147030   -1.193870    0.738370
  H      0.275030   -2.073610   -0.388860
  H      0.181530   -1.292920    1.251340
  H      0.181530    1.292920    1.251350
  H      0.275040    2.073620   -0.388850
  H      2.298610    0.000000    1.075660
  H      2.601180   -0.900110   -0.469980
  H      2.601180    0.900110   -0.469980
  H     -2.147040    1.193890    0.738340
  H     -1.846100    1.156730   -1.044190

 Total Charge           Charge          ....    0
 Multiplicity           Mult            ....    1
 Number of Electrons    NEL             ....   48
 Basis Dimension        Dim             ....  139

ORBITAL ENERGIES
----------------

  NO   OCC          E(Eh)            E(eV)
   0   2.0000     -15.538380      -422.8208
   1   2.0000     -11.251122      -306.1586
   2   2.0000     -11.248908      -306.0983
   3   2.0000     -11.248889      -306.0978
   4   2.0000     -11.226232      -305.4813
   5   2.0000     -11.225665      -305.4659
   6   2.0000      -1.242650       -33.8142
   7   2.0000      -1.045688       -28.4546
   8   2.0000      -0.971084       -26.4245
   9   2.0000      -0.905839       -24.6491
  10   2.0000      -0.779627       -21.2147
  11   2.0000      -0.774971       -21.0880
  12   2.0000      -0.662998       -18.0411
  13   2.0000      -0.649703       -17.6793
  14   2.0000      -0.598096       -16.2750
  15   2.0000      -0.587586       -15.9890
  16   2.0000      -0.554099       -15.0778
  17   2.0000      -0.522464       -14.2170
  18   2.0000      -0.495764       -13.4904
  19   2.0000      -0.493093       -13.4177
  20   2.0000      -0.472029       -12.8446
  21   2.0000      -0.464733       -12.6460
  22   2.0000      -0.449477       -12.2309
  23   2.0000      -0.346891        -9.4394
  24   0.0000       0.174978         4.7614
  25   0.0000       0.202028         5.4975
  26   0.0000       0.207820         5.6551
  27   0.0000       0.224214         6.1012
  28   0.0000       0.250428         6.8145

MULLIKEN ATOMIC CHARGES
-----------------------
   0 C :   -0.061313
   1 C :   -0.061301
   2 C :    0.111498
   3 C :    0.111496
   4 N :   -0.501053
   5 C :    0.098611
   6 H :    0.041066
   7 H :    0.033197
   8 H :    0.034439
   9 H :    0.002779
  10 H :    0.002779
  11 H :    0.034440
  12 H :    0.005110
  13 H :    0.036994
  14 H :    0.036994
  15 H :    0.033197
  16 H :    0.041067
Sum of atomic charges:    0.0000000

LOEWDIN ATOMIC CHARGES
----------------------
   0 C :   -0.035694
   1 C :   -0.035692
   2 C :   -0.013103
   3 C :   -0.013106
   4 N :   -0.033714
   5 C :   -0.026319
   6 H :    0.024110
   7 H :    0.020758
   8 H :    0.017852
   9 H :   -0.004792
  10 H :   -0.004792
  11 H :    0.017853
  12 H :   -0.001501
  13 H :    0.021636
  14 H :    0.021636
  15 H :    0.020757
  16 H :    0.024112

  Mayer bond orders larger than 0.1
B(  0-C ,  1-C ) :   1.0364 B(  0-C ,  3-C ) :   1.0539 B(  0-C , 15-H ) :   0.9733
B(  0-C , 16-H ) :   0.9691 B(  1-C ,  2-C ) :   1.0539 B(  1-C ,  6-H ) :   0.9691
B(  1-C ,  7-H ) :   0.9733 B(  2-C ,  4-N ) :   0.9927 B(  2-C ,  8-H ) :   0.9748
B(  2-C ,  9-H ) :   0.9561 B(  3-C ,  4-N ) :   0.9927 B(  3-C , 10-H ) :   0.9561
B(  3-C , 11-H ) :   0.9748 B(  4-N ,  5-C ) :   1.0116 B(  5-C , 12-H ) :   0.9699
B(  5-C , 13-H ) :   0.9872 B(  5-C , 14-H ) :   0.9872

E(0)                                       ...   -250.190962808
E(0)                                       ...   -250.190962808
E(CORR)(strong-pairs)                      ...     -0.952953702
E(CORR)(weak-pairs)                        ...     -0.000364937
E(CORR)(corrected)                         ...     -0.953318639
E(TOT)                                     ...   -251.144281447
E(CCSD(T))                                 ...   -251.173313612
FINAL SINGLE POINT ENERGY      -251.173313611810

DIPOLE MOMENT
-------------
                                X             Y             Z
Electronic contribution:     -0.47575      -0.00003      -1.12196
Nuclear contribution   :      0.45734       0.00002       1.32027
                        -----------------------------------------
Total Dipole Moment    :     -0.01841      -0.00001       0.19831
                        -----------------------------------------
Magnitude (a.u.)       :      0.19916
Magnitude (Debye)      :      0.50624

Rotational constants in cm-1:     0.222234     0.105120     0.078423
Rotational constants in MHz :  6662.398710  3151.425339  2351.071294

                             ****ORCA TERMINATED NORMALLY****
TOTAL RUN TIME: 0 days 0 hours 2 minutes 45 seconds 772 msec
