                         Program Version 4.1.x  -  STABLE  -
|  1> ! RHF DLPNO-CCSD(T) cc-pVDZ RIJK cc-pVTZ/JK cc-pVDZ/C
|  2> ! KDIIS SOSCF TightSCF TightPNO
|  3>
|  4> %pal nprocs 4 end
|  5>
|  6> %maxcore 8000
|  7>
|  8> %scf maxiter 300
|  9>      shift shift 0.2 erroff 0.1 end
| 10> end
| 11>
| 12> * xyzfile 0 1 N_Me_ethylamine_a.xyz
| 13>
| 14>
| 15>                          ****END OF INPUT****

CARTESIAN COORDINATES (ANGSTROEM)
---------------------------------
  C      1.905670   -0.143420   -0.029360
  C      0.524830    0.503660    0.051620
  N     -0.537410   -0.487150   -0.111000
  C     -1.880860    0.072710   -0.007420
  H      0.414590    1.241420   -0.754160
  H      0.431860    1.064830    1.002640
  H      2.694130    0.610450    0.066350
  H      2.048040   -0.874400    0.776360
  H     -0.418560   -1.228450    0.575400
  H      2.032890   -0.663360   -0.983970
  H     -2.620560   -0.730330   -0.079950
  H     -2.064800    0.632220    0.928870
  H     -2.053610    0.759970   -0.843570

 Total Charge           Charge          ....    0
 Multiplicity           Mult            ....    1
 Number of Electrons    NEL             ....   34
 Basis Dimension        Dim             ....  101

ORBITAL ENERGIES
----------------

  NO   OCC          E(Eh)            E(eV)
   0   2.0000     -15.537156      -422.7875
   1   2.0000     -11.248977      -306.1002
   2   2.0000     -11.246014      -306.0196
   3   2.0000     -11.219275      -305.2920
   4   2.0000      -1.194492       -32.5038
   5   2.0000      -1.003260       -27.3001
   6   2.0000      -0.888918       -24.1887
   7   2.0000      -0.817564       -22.2471
   8   2.0000      -0.651006       -17.7148
   9   2.0000      -0.607190       -16.5225
  10   2.0000      -0.602886       -16.4054
  11   2.0000      -0.566218       -15.4076
  12   2.0000      -0.527734       -14.3604
  13   2.0000      -0.498964       -13.5775
  14   2.0000      -0.486115       -13.2279
  15   2.0000      -0.482943       -13.1416
  16   2.0000      -0.361366        -9.8333
  17   0.0000       0.185156         5.0384
  18   0.0000       0.205183         5.5833
  19   0.0000       0.218493         5.9455
  20   0.0000       0.245569         6.6823
  21   0.0000       0.266336         7.2474

MULLIKEN ATOMIC CHARGES
-----------------------
   0 C :   -0.042401
   1 C :    0.054097
   2 N :   -0.389368
   3 C :    0.086031
   4 H :    0.029563
   5 H :    0.004719
   6 H :    0.029377
   7 H :    0.023947
   8 H :    0.094541
   9 H :    0.041474
  10 H :    0.031705
  11 H :    0.004958
  12 H :    0.031356
Sum of atomic charges:   -0.0000000

LOEWDIN ATOMIC CHARGES
----------------------
   0 C :   -0.054806
   1 C :   -0.019597
   2 N :   -0.048836
   3 C :   -0.025947
   4 H :    0.016254
   5 H :   -0.002168
   6 H :    0.023650
   7 H :    0.018032
   8 H :    0.032699
   9 H :    0.024446
  10 H :    0.019120
  11 H :   -0.000819
  12 H :    0.017973

  Mayer bond orders larger than 0.1
B(  0-C ,  1-C ) :   1.0756 B(  0-C ,  6-H ) :   0.9804 B(  0-C ,  7-H ) :   0.9803
B(  0-C ,  9-H ) :   0.9780 B(  1-C ,  2-N ) :   1.0036 B(  1-C ,  4-H ) :   0.9678
B(  1-C ,  5-H ) :   0.9628 B(  2-N ,  3-C ) :   1.0269 B(  2-N ,  8-H ) :   0.9712
B(  3-C , 10-H ) :   0.9903 B(  3-C , 11-H ) :   0.9753 B(  3-C , 12-H ) :   0.9851

E(0)                                       ...   -173.291405954
E(0)                                       ...   -173.291405954
E(CORR)(strong-pairs)                      ...     -0.667739707
E(CORR)(weak-pairs)                        ...     -0.000158475
E(CORR)(corrected)                         ...     -0.667898182
E(TOT)                                     ...   -173.959304136
E(CCSD(T))                                 ...   -173.977117228
FINAL SINGLE POINT ENERGY      -173.977117228131

DIPOLE MOMENT
-------------
                                X             Y             Z
Electronic contribution:     -0.52437      -0.78287      -0.38533
Nuclear contribution   :      0.49781       0.87444       0.74246
                        -----------------------------------------
Total Dipole Moment    :     -0.02656       0.09156       0.35713
                        -----------------------------------------
Magnitude (a.u.)       :      0.36963
Magnitude (Debye)      :      0.93953

Rotational constants in cm-1:     0.873396     0.129215     0.121092
Rotational constants in MHz : 26183.742083  3873.757139  3630.246166

                             ****ORCA TERMINATED NORMALLY****
TOTAL RUN TIME: 0 days 0 hours 0 minutes 31 seconds 202 msec
