                         Program Version 4.1.x  -  STABLE  -
|  1> ! RHF DLPNO-CCSD(T) cc-pVDZ RIJK cc-pVTZ/JK cc-pVDZ/C
|  2> ! KDIIS SOSCF TightSCF TightPNO
|  3>
|  4> %pal nprocs 4 end
|  5>
|  6> %maxcore 8000
|  7>
|  8> %scf maxiter 300
|  9>      shift shift 0.2 erroff 0.1 end
| 10> end
| 11>
| 12> * xyzfile 0 1 N_Me_spiro_piperidine_2_2p_adamantane_ch.xyz
| 13>
| 14>
| 15>                          ****END OF INPUT****

CARTESIAN COORDINATES (ANGSTROEM)
---------------------------------
  C     -2.371750   -1.108930   -0.400950
  C     -1.324770   -1.720660    0.539970
  C     -0.308420   -0.641270    0.964970
  C      0.483110   -0.028840   -0.237560
  C     -0.634190    0.547480   -1.166760
  C     -1.658170   -0.513260   -1.622390
  C     -1.424270    1.663630   -0.448930
  C     -2.133770    1.082900    0.784450
  C     -1.086590    0.457560    1.719840
  C     -3.133310    0.003410    0.338260
  C      1.313060   -1.097020   -1.010970
  C      2.429090   -1.656700   -0.113340
  C      3.331210   -0.504150    0.338280
  C      2.468980    0.526990    1.082920
  N      1.403200    1.041820    0.219790
  C      1.964960    1.881560   -0.835870
  H     -3.092770   -1.897990   -0.730250
  H     -0.821300   -2.587960    0.055430
  H     -1.834490   -2.142480    1.438810
  H      0.374340   -1.129720    1.696220
  H     -0.178570    0.958270   -2.098990
  H     -1.177160   -1.317890   -2.223740
  H     -2.410900   -0.050580   -2.304250
  H     -2.173590    2.113670   -1.142420
  H     -0.762210    2.502210   -0.133810
  H     -2.682060    1.895880    1.322420
  H     -1.592180    0.027250    2.616800
  H     -0.397840    1.243610    2.108090
  H     -3.669570   -0.416170    1.222220
  H     -3.910730    0.447970   -0.327320
  H      1.747450   -0.676180   -1.946010
  H      0.692320   -1.954970   -1.347820
  H      3.036500   -2.394530   -0.691130
  H      2.019280   -2.213060    0.760920
  H      3.874620   -0.056290   -0.525680
  H      4.116480   -0.897090    1.028030
  H      3.112150    1.367770    1.436880
  H      2.053360    0.092050    2.019620
  H      1.183170    2.487920   -1.342650
  H      2.663560    2.635920   -0.406260
  H      2.516660    1.313460   -1.615080

 Total Charge           Charge          ....    0
 Multiplicity           Mult            ....    1
 Number of Electrons    NEL             ....  122
 Basis Dimension        Dim             ....  349

ORBITAL ENERGIES
----------------

  NO   OCC          E(Eh)            E(eV)
   0   2.0000     -15.540591      -422.8810
   1   2.0000     -11.260592      -306.4163
   2   2.0000     -11.249172      -306.1055
   3   2.0000     -11.248514      -306.0876
   4   2.0000     -11.223982      -305.4201
   5   2.0000     -11.223851      -305.4165
   6   2.0000     -11.223353      -305.4030
   7   2.0000     -11.221186      -305.3440
   8   2.0000     -11.220614      -305.3284
   9   2.0000     -11.220355      -305.3214
  10   2.0000     -11.219920      -305.3096
  11   2.0000     -11.219728      -305.3043
  12   2.0000     -11.217980      -305.2568
  13   2.0000     -11.216040      -305.2040
  14   2.0000     -11.213659      -305.1392
  15   2.0000     -11.213004      -305.1213
  16   2.0000      -1.231121       -33.5005
  17   2.0000      -1.150265       -31.3003
  18   2.0000      -1.059578       -28.8326
  19   2.0000      -1.036444       -28.2031
  20   2.0000      -1.029306       -28.0088
  21   2.0000      -1.027180       -27.9510
  22   2.0000      -0.964500       -26.2454
  23   2.0000      -0.923625       -25.1331
  24   2.0000      -0.894210       -24.3327
  25   2.0000      -0.854319       -23.2472
  26   2.0000      -0.835219       -22.7275
  27   2.0000      -0.801681       -21.8149
  28   2.0000      -0.780691       -21.2437
  29   2.0000      -0.776095       -21.1186
  30   2.0000      -0.736899       -20.0520
  31   2.0000      -0.691303       -18.8113
  32   2.0000      -0.653949       -17.7949
  33   2.0000      -0.626454       -17.0467
  34   2.0000      -0.621910       -16.9230
  35   2.0000      -0.610449       -16.6112
  36   2.0000      -0.603234       -16.4148
  37   2.0000      -0.588393       -16.0110
  38   2.0000      -0.581349       -15.8193
  39   2.0000      -0.574674       -15.6377
  40   2.0000      -0.564077       -15.3493
  41   2.0000      -0.559026       -15.2119
  42   2.0000      -0.538670       -14.6579
  43   2.0000      -0.535750       -14.5785
  44   2.0000      -0.533009       -14.5039
  45   2.0000      -0.527860       -14.3638
  46   2.0000      -0.521587       -14.1931
  47   2.0000      -0.506333       -13.7780
  48   2.0000      -0.488561       -13.2944
  49   2.0000      -0.485853       -13.2207
  50   2.0000      -0.477266       -12.9871
  51   2.0000      -0.463834       -12.6216
  52   2.0000      -0.455340       -12.3904
  53   2.0000      -0.454199       -12.3594
  54   2.0000      -0.447648       -12.1811
  55   2.0000      -0.441140       -12.0040
  56   2.0000      -0.429324       -11.6825
  57   2.0000      -0.399422       -10.8688
  58   2.0000      -0.396838       -10.7985
  59   2.0000      -0.387988       -10.5577
  60   2.0000      -0.330083        -8.9820
  61   0.0000       0.166050         4.5184
  62   0.0000       0.187350         5.0981
  63   0.0000       0.197921         5.3857
  64   0.0000       0.204940         5.5767
  65   0.0000       0.217131         5.9084

MULLIKEN ATOMIC CHARGES
-----------------------
   0 C :   -0.161940
   1 C :    0.074424
   2 C :   -0.110569
   3 C :   -0.146164
   4 C :   -0.124357
   5 C :    0.075474
   6 C :    0.090852
   7 C :   -0.167932
   8 C :    0.093914
   9 C :    0.064063
  10 C :    0.072048
  11 C :   -0.039004
  12 C :   -0.058800
  13 C :    0.117396
  14 N :   -0.471099
  15 C :    0.096409
  16 H :    0.003382
  17 H :    0.024193
  18 H :    0.025629
  19 H :    0.014121
  20 H :    0.008972
  21 H :    0.024754
  22 H :    0.025746
  23 H :    0.018092
  24 H :    0.035249
  25 H :    0.003919
  26 H :    0.017212
  27 H :    0.036916
  28 H :    0.020289
  29 H :    0.020316
  30 H :    0.027611
  31 H :    0.027767
  32 H :    0.022255
  33 H :    0.031534
  34 H :    0.031495
  35 H :    0.019753
  36 H :    0.028862
  37 H :    0.035250
  38 H :    0.042292
  39 H :    0.035749
  40 H :    0.013929
Sum of atomic charges:   -0.0000000

LOEWDIN ATOMIC CHARGES
----------------------
   0 C :   -0.038578
   1 C :   -0.019126
   2 C :   -0.026929
   3 C :   -0.029553
   4 C :   -0.027070
   5 C :   -0.019011
   6 C :   -0.019124
   7 C :   -0.036324
   8 C :   -0.017532
   9 C :   -0.022829
  10 C :   -0.031061
  11 C :   -0.035248
  12 C :   -0.047547
  13 C :   -0.012765
  14 N :   -0.025461
  15 C :   -0.025211
  16 H :    0.016901
  17 H :    0.016109
  18 H :    0.021068
  19 H :    0.013288
  20 H :    0.015665
  21 H :    0.016693
  22 H :    0.020783
  23 H :    0.016004
  24 H :    0.020977
  25 H :    0.017393
  26 H :    0.015993
  27 H :    0.021288
  28 H :    0.016373
  29 H :    0.016541
  30 H :    0.019106
  31 H :    0.016551
  32 H :    0.019059
  33 H :    0.018663
  34 H :    0.019095
  35 H :    0.018543
  36 H :    0.018320
  37 H :    0.018475
  38 H :    0.019612
  39 H :    0.022941
  40 H :   -0.002076

  Mayer bond orders larger than 0.1
B(  0-C ,  1-C ) :   1.0223 B(  0-C ,  5-C ) :   1.0218 B(  0-C ,  9-C ) :   1.0233
B(  0-C , 16-H ) :   0.9676 B(  1-C ,  2-C ) :   1.0355 B(  1-C , 17-H ) :   0.9656
B(  1-C , 18-H ) :   0.9647 B(  2-C ,  3-C ) :   0.9810 B(  2-C ,  8-C ) :   1.0294
B(  2-C , 19-H ) :   0.9522 B(  3-C ,  4-C ) :   1.0037 B(  3-C , 10-C ) :   1.0230
B(  3-C , 14-N ) :   0.9708 B(  4-C ,  5-C ) :   1.0376 B(  4-C ,  6-C ) :   1.0266
B(  4-C , 20-H ) :   0.9542 B(  5-C , 21-H ) :   0.9667 B(  5-C , 22-H ) :   0.9648
B(  6-C ,  7-C ) :   1.0243 B(  6-C , 23-H ) :   0.9654 B(  6-C , 24-H ) :   0.9626
B(  7-C ,  8-C ) :   1.0241 B(  7-C ,  9-C ) :   1.0233 B(  7-C , 25-H ) :   0.9674
B(  8-C , 26-H ) :   0.9654 B(  8-C , 27-H ) :   0.9615 B(  9-C , 28-H ) :   0.9667
B(  9-C , 29-H ) :   0.9666 B( 10-C , 11-C ) :   1.0486 B( 10-C , 30-H ) :   0.9579
B( 10-C , 31-H ) :   0.9561 B( 11-C , 12-C ) :   1.0381 B( 11-C , 32-H ) :   0.9730
B( 11-C , 33-H ) :   0.9646 B( 12-C , 13-C ) :   1.0350 B( 12-C , 34-H ) :   0.9648
B( 12-C , 35-H ) :   0.9711 B( 13-C , 14-N ) :   1.0009 B( 13-C , 36-H ) :   0.9787
B( 13-C , 37-H ) :   0.9730 B( 14-N , 15-C ) :   1.0057 B( 15-C , 38-H ) :   0.9857
B( 15-C , 39-H ) :   0.9870 B( 15-C , 40-H ) :   0.9712

E(0)                                       ...   -637.059253106
E(0)                                       ...   -637.059253106
E(CORR)(strong-pairs)                      ...     -2.452541280
E(CORR)(weak-pairs)                        ...     -0.002619160
E(CORR)(corrected)                         ...     -2.455160440
E(TOT)                                     ...   -639.514413546
E(CCSD(T))                                 ...   -639.599560323
FINAL SINGLE POINT ENERGY      -639.599560323488

DIPOLE MOMENT
-------------
                                X             Y             Z
Electronic contribution:     -2.59106       0.53078       1.04054
Nuclear contribution   :      2.81457      -0.67140      -1.17888
                        -----------------------------------------
Total Dipole Moment    :      0.22352      -0.14061      -0.13833
                        -----------------------------------------
Magnitude (a.u.)       :      0.29811
Magnitude (Debye)      :      0.75773

Rotational constants in cm-1:     0.034010     0.015884     0.014675
Rotational constants in MHz :  1019.583430   476.182893   439.944518

                             ****ORCA TERMINATED NORMALLY****
TOTAL RUN TIME: 0 days 0 hours 44 minutes 21 seconds 791 msec
