                         Program Version 4.1.x  -  STABLE  -
|  1> ! RHF DLPNO-CCSD(T) cc-pVDZ RIJK cc-pVTZ/JK cc-pVDZ/C
|  2> ! KDIIS SOSCF TightSCF TightPNO
|  3>
|  4> %pal nprocs 4 end
|  5>
|  6> %maxcore 8000
|  7>
|  8> %scf maxiter 300
|  9>      shift shift 0.2 erroff 0.1 end
| 10> end
| 11>
| 12> * xyzfile 0 1 N_methylpyrrolidine_ts.xyz
| 13>
| 14>
| 15>                          ****END OF INPUT****

CARTESIAN COORDINATES (ANGSTROEM)
---------------------------------
  C     -1.484360    0.733920   -0.211660
  C     -1.476370   -0.740350    0.222840
  C     -0.053910   -1.197630   -0.134490
  C     -0.058440    1.200960    0.119460
  N      0.724090    0.002920   -0.006740
  C      2.157750    0.000850    0.006980
  H     -2.267840   -1.346230   -0.279040
  H     -1.627080   -0.802000    1.327610
  H      0.001560   -1.547040   -1.192150
  H      0.318480   -1.995270    0.550240
  H      0.013100    1.560770    1.172580
  H      0.294810    1.995830   -0.578390
  H      2.514490   -0.105870    1.056230
  H      2.548320   -0.846720   -0.600600
  H      2.553800    0.950390   -0.418770
  H     -2.270430    1.335040    0.304240
  H     -1.655810    0.794130   -1.313510

 Total Charge           Charge          ....    0
 Multiplicity           Mult            ....    1
 Number of Electrons    NEL             ....   48
 Basis Dimension        Dim             ....  139

ORBITAL ENERGIES
----------------

  NO   OCC          E(Eh)            E(eV)
   0   2.0000     -15.517700      -422.2581
   1   2.0000     -11.252318      -306.1911
   2   2.0000     -11.250348      -306.1375
   3   2.0000     -11.250200      -306.1335
   4   2.0000     -11.228134      -305.5331
   5   2.0000     -11.227545      -305.5170
   6   2.0000      -1.230811       -33.4921
   7   2.0000      -1.046482       -28.4762
   8   2.0000      -0.973514       -26.4907
   9   2.0000      -0.907186       -24.6858
  10   2.0000      -0.787312       -21.4239
  11   2.0000      -0.758992       -20.6532
  12   2.0000      -0.663048       -18.0425
  13   2.0000      -0.650529       -17.7018
  14   2.0000      -0.592880       -16.1331
  15   2.0000      -0.571537       -15.5523
  16   2.0000      -0.568744       -15.4763
  17   2.0000      -0.516783       -14.0624
  18   2.0000      -0.510259       -13.8849
  19   2.0000      -0.499481       -13.5916
  20   2.0000      -0.469624       -12.7791
  21   2.0000      -0.469211       -12.7679
  22   2.0000      -0.457678       -12.4540
  23   2.0000      -0.306286        -8.3345
  24   0.0000       0.173073         4.7095
  25   0.0000       0.203678         5.5424
  26   0.0000       0.214189         5.8284
  27   0.0000       0.227115         6.1801
  28   0.0000       0.247119         6.7245

MULLIKEN ATOMIC CHARGES
-----------------------
   0 C :   -0.091949
   1 C :   -0.091428
   2 C :    0.188631
   3 C :    0.189962
   4 N :   -0.598009
   5 C :    0.131215
   6 H :    0.033895
   7 H :    0.037277
   8 H :    0.011042
   9 H :    0.019895
  10 H :    0.008579
  11 H :    0.020840
  12 H :    0.013760
  13 H :    0.027644
  14 H :    0.027202
  15 H :    0.034286
  16 H :    0.037157
Sum of atomic charges:   -0.0000000

LOEWDIN ATOMIC CHARGES
----------------------
   0 C :   -0.036327
   1 C :   -0.036364
   2 C :   -0.007835
   3 C :   -0.007559
   4 N :   -0.040861
   5 C :   -0.021638
   6 H :    0.021549
   7 H :    0.022329
   8 H :    0.001240
   9 H :    0.009663
  10 H :   -0.000329
  11 H :    0.009763
  12 H :    0.004585
  13 H :    0.019081
  14 H :    0.018795
  15 H :    0.021725
  16 H :    0.022183

  Mayer bond orders larger than 0.1
B(  0-C ,  1-C ) :   1.0457 B(  0-C ,  3-C ) :   1.0405 B(  0-C , 15-H ) :   0.9770
B(  0-C , 16-H ) :   0.9661 B(  1-C ,  2-C ) :   1.0398 B(  1-C ,  6-H ) :   0.9771
B(  1-C ,  7-H ) :   0.9662 B(  2-C ,  4-N ) :   0.9884 B(  2-C ,  8-H ) :   0.9593
B(  2-C ,  9-H ) :   0.9684 B(  3-C ,  4-N ) :   0.9918 B(  3-C , 10-H ) :   0.9595
B(  3-C , 11-H ) :   0.9661 B(  4-N ,  5-C ) :   1.0123 B(  5-C , 12-H ) :   0.9767
B(  5-C , 13-H ) :   0.9830 B(  5-C , 14-H ) :   0.9827

E(0)                                       ...   -250.181085343
E(0)                                       ...   -250.181085343
E(CORR)(strong-pairs)                      ...     -0.950386546
E(CORR)(weak-pairs)                        ...     -0.000367163
E(CORR)(corrected)                         ...     -0.950753708
E(TOT)                                     ...   -251.131839052
E(CCSD(T))                                 ...   -251.160518767
FINAL SINGLE POINT ENERGY      -251.160518767446

DIPOLE MOMENT
-------------
                                X             Y             Z
Electronic contribution:     -0.51527       0.00794      -0.06676
Nuclear contribution   :      0.45274      -0.00735       0.03006
                        -----------------------------------------
Total Dipole Moment    :     -0.06253       0.00058      -0.03671
                        -----------------------------------------
Magnitude (a.u.)       :      0.07251
Magnitude (Debye)      :      0.18431

Rotational constants in cm-1:     0.217827     0.104177     0.077140
Rotational constants in MHz :  6530.286624  3123.151653  2312.611334

                             ****ORCA TERMINATED NORMALLY****
TOTAL RUN TIME: 0 days 0 hours 2 minutes 38 seconds 711 msec
