                         Program Version 4.1.x  -  STABLE  -
|  1> ! RHF DLPNO-CCSD(T) cc-pVDZ RIJK cc-pVTZ/JK cc-pVDZ/C
|  2> ! KDIIS SOSCF TightSCF TightPNO
|  3>
|  4> %pal nprocs 4 end
|  5>
|  6> %maxcore 8000
|  7>
|  8> %scf maxiter 300
|  9>      shift shift 0.2 erroff 0.1 end
| 10> end
| 11>
| 12> * xyzfile 0 1 N_methylformamide_Z.xyz
| 13>
| 14>
| 15>                          ****END OF INPUT****

CARTESIAN COORDINATES (ANGSTROEM)
---------------------------------
  C     -1.435440   -0.440610    0.000140
  N     -0.472750    0.654060   -0.000610
  C      0.867870    0.435580    0.000150
  O      1.389530   -0.670920    0.000000
  H     -0.801520    1.608400    0.002230
  H     -2.443650   -0.023020   -0.016120
  H     -1.295270   -1.078320   -0.877870
  H     -1.316740   -1.061060    0.893810
  H      1.455610    1.373090    0.000430

 Total Charge           Charge          ....    0
 Multiplicity           Mult            ....    1
 Number of Electrons    NEL             ....   32
 Basis Dimension        Dim             ....   81

ORBITAL ENERGIES
----------------

  NO   OCC          E(Eh)            E(eV)
   0   2.0000     -20.519450      -558.3626
   1   2.0000     -15.591528      -424.2671
   2   2.0000     -11.351723      -308.8961
   3   2.0000     -11.272632      -306.7439
   4   2.0000      -1.371255       -37.3138
   5   2.0000      -1.228054       -33.4170
   6   2.0000      -0.962747       -26.1977
   7   2.0000      -0.803444       -21.8628
   8   2.0000      -0.735747       -20.0207
   9   2.0000      -0.634280       -17.2596
  10   2.0000      -0.619852       -16.8670
  11   2.0000      -0.585127       -15.9221
  12   2.0000      -0.554400       -15.0860
  13   2.0000      -0.521983       -14.2039
  14   2.0000      -0.421563       -11.4713
  15   2.0000      -0.388566       -10.5734
  16   0.0000       0.170134         4.6296
  17   0.0000       0.195713         5.3256
  18   0.0000       0.203067         5.5257
  19   0.0000       0.235528         6.4090
  20   0.0000       0.261721         7.1218

MULLIKEN ATOMIC CHARGES
-----------------------
   0 C :    0.114220
   1 N :   -0.377625
   2 C :    0.388554
   3 O :   -0.415604
   4 H :    0.121266
   5 H :    0.035400
   6 H :    0.055252
   7 H :    0.054355
   8 H :    0.024183
Sum of atomic charges:    0.0000000

LOEWDIN ATOMIC CHARGES
----------------------
   0 C :    0.002854
   1 N :    0.038836
   2 C :   -0.005887
   3 O :   -0.173272
   4 H :    0.057526
   5 H :    0.023922
   6 H :    0.027702
   7 H :    0.027146
   8 H :    0.001173

  Mayer bond orders larger than 0.1
B(  0-C ,  1-N ) :   0.9516 B(  0-C ,  5-H ) :   0.9864 B(  0-C ,  6-H ) :   0.9841
B(  0-C ,  7-H ) :   0.9843 B(  1-N ,  2-C ) :   1.2243 B(  1-N ,  4-H ) :   0.9716
B(  2-C ,  3-O ) :   2.0006 B(  2-C ,  8-H ) :   0.9637

E(0)                                       ...   -207.977998334
E(0)                                       ...   -207.977998334
E(CORR)(strong-pairs)                      ...     -0.657337819
E(CORR)(weak-pairs)                        ...     -0.000131508
E(CORR)(corrected)                         ...     -0.657469327
E(TOT)                                     ...   -208.635467661
E(CCSD(T))                                 ...   -208.654815069
FINAL SINGLE POINT ENERGY      -208.654815068991

DIPOLE MOMENT
-------------
                                X             Y             Z
Electronic contribution:      3.31564       0.37461      -0.00136
Nuclear contribution   :     -4.45888       0.82653       0.00253
                        -----------------------------------------
Total Dipole Moment    :     -1.14325       1.20114       0.00117
                        -----------------------------------------
Magnitude (a.u.)       :      1.65824
Magnitude (Debye)      :      4.21490

Rotational constants in cm-1:     0.648999     0.206752     0.161556
Rotational constants in MHz : 19456.506012  6198.275004  4843.324495

                             ****ORCA TERMINATED NORMALLY****
TOTAL RUN TIME: 0 days 0 hours 0 minutes 25 seconds 442 msec
