                         Program Version 4.1.x  -  STABLE  -
|  1> ! RHF DLPNO-CCSD(T) cc-pVDZ RIJK cc-pVTZ/JK cc-pVDZ/C
|  2> ! KDIIS SOSCF TightSCF TightPNO
|  3>
|  4> %pal nprocs 4 end
|  5>
|  6> %maxcore 8000
|  7>
|  8> %scf maxiter 300
|  9>      shift shift 0.2 erroff 0.1 end
| 10> end
| 11>
| 12> * xyzfile 0 1 N_methylformamidine_cis.xyz
| 13>
| 14>
| 15>                          ****END OF INPUT****

CARTESIAN COORDINATES (ANGSTROEM)
---------------------------------
  C     -1.440710   -0.434720    0.000010
  N     -0.624480    0.771310   -0.000020
  C      0.645970    0.625640    0.000010
  N      1.370810   -0.545220   -0.000010
  H      1.270890    1.520210    0.000040
  H      2.377090   -0.524310    0.000030
  H      0.923090   -1.447130   -0.000010
  H     -2.496860   -0.154740   -0.000090
  H     -1.264960   -1.061110   -0.890570
  H     -1.265100   -1.060980    0.890710

 Total Charge           Charge          ....    0
 Multiplicity           Mult            ....    1
 Number of Electrons    NEL             ....   32
 Basis Dimension        Dim             ....   86

ORBITAL ENERGIES
----------------

  NO   OCC          E(Eh)            E(eV)
   0   2.0000     -15.579673      -423.9445
   1   2.0000     -15.519437      -422.3053
   2   2.0000     -11.308301      -307.7145
   3   2.0000     -11.241700      -305.9022
   4   2.0000      -1.251831       -34.0641
   5   2.0000      -1.147520       -31.2256
   6   2.0000      -0.934941       -25.4410
   7   2.0000      -0.791967       -21.5505
   8   2.0000      -0.718169       -19.5424
   9   2.0000      -0.654403       -17.8072
  10   2.0000      -0.588206       -16.0059
  11   2.0000      -0.581873       -15.8336
  12   2.0000      -0.524797       -14.2805
  13   2.0000      -0.493798       -13.4369
  14   2.0000      -0.387464       -10.5434
  15   2.0000      -0.343047        -9.3348
  16   0.0000       0.172654         4.6981
  17   0.0000       0.201728         5.4893
  18   0.0000       0.204318         5.5598
  19   0.0000       0.233710         6.3596
  20   0.0000       0.272213         7.4073

MULLIKEN ATOMIC CHARGES
-----------------------
   0 C :    0.068590
   1 N :   -0.436744
   2 C :    0.272853
   3 N :   -0.272220
   4 H :    0.048291
   5 H :    0.123971
   6 H :    0.124398
   7 H :    0.041657
   8 H :    0.014598
   9 H :    0.014607
Sum of atomic charges:   -0.0000000

LOEWDIN ATOMIC CHARGES
----------------------
   0 C :   -0.042515
   1 N :   -0.127981
   2 C :   -0.017445
   3 N :    0.021697
   4 H :    0.022684
   5 H :    0.057254
   6 H :    0.053482
   7 H :    0.021857
   8 H :    0.005481
   9 H :    0.005486

  Mayer bond orders larger than 0.1
B(  0-C ,  1-N ) :   1.0245 B(  0-C ,  7-H ) :   0.9954 B(  0-C ,  8-H ) :   0.9724
B(  0-C ,  9-H ) :   0.9724 B(  1-N ,  2-C ) :   1.9379 B(  2-C ,  3-N ) :   1.1735
B(  2-C ,  4-H ) :   0.9717 B(  3-N ,  5-H ) :   0.9788 B(  3-N ,  6-H ) :   0.9796

E(0)                                       ...   -188.118722840
E(0)                                       ...   -188.118722840
E(CORR)(strong-pairs)                      ...     -0.651900024
E(CORR)(weak-pairs)                        ...     -0.000132935
E(CORR)(corrected)                         ...     -0.652032959
E(TOT)                                     ...   -188.770755800
E(CCSD(T))                                 ...   -188.790905943
FINAL SINGLE POINT ENERGY      -188.790905942802

DIPOLE MOMENT
-------------
                                X             Y             Z
Electronic contribution:      1.48083       1.93295      -0.00004
Nuclear contribution   :     -0.46713      -2.82131       0.00011
                        -----------------------------------------
Total Dipole Moment    :      1.01370      -0.88836       0.00007
                        -----------------------------------------
Magnitude (a.u.)       :      1.34788
Magnitude (Debye)      :      3.42604

Rotational constants in cm-1:     0.605474     0.207799     0.159383
Rotational constants in MHz : 18151.656269  6229.665163  4778.171769

                             ****ORCA TERMINATED NORMALLY****
TOTAL RUN TIME: 0 days 0 hours 0 minutes 27 seconds 490 msec
