                         Program Version 4.1.x  -  STABLE  -
|  1> ! RHF DLPNO-CCSD(T) cc-pVDZ RIJK cc-pVTZ/JK cc-pVDZ/C
|  2> ! KDIIS SOSCF TightSCF TightPNO
|  3>
|  4> %pal nprocs 4 end
|  5>
|  6> %maxcore 8000
|  7>
|  8> %scf maxiter 300
|  9>      shift shift 0.2 erroff 0.1 end
| 10> end
| 11>
| 12> * xyzfile 0 1 N_methylacetamide_Z.xyz
| 13>
| 14>
| 15>                          ****END OF INPUT****

CARTESIAN COORDINATES (ANGSTROEM)
---------------------------------
  C      1.833630   -0.538520    0.000060
  C      0.486150    0.169440   -0.000050
  N     -0.607980   -0.648890   -0.000220
  C     -1.962190   -0.112910    0.000100
  O      0.376830    1.393170   -0.000010
  H     -0.475800   -1.648740    0.000280
  H      1.945240   -1.173360   -0.886070
  H      2.621590    0.214540   -0.000310
  H      1.945430   -1.172610    0.886710
  H     -2.669190   -0.944890   -0.001790
  H     -2.136330    0.505440    0.886220
  H     -2.135230    0.508490   -0.884070

 Total Charge           Charge          ....    0
 Multiplicity           Mult            ....    1
 Number of Electrons    NEL             ....   40
 Basis Dimension        Dim             ....  105

ORBITAL ENERGIES
----------------

  NO   OCC          E(Eh)            E(eV)
   0   2.0000     -20.510662      -558.1235
   1   2.0000     -15.581907      -424.0052
   2   2.0000     -11.348074      -308.7968
   3   2.0000     -11.266212      -306.5692
   4   2.0000     -11.242181      -305.9153
   5   2.0000      -1.366786       -37.1921
   6   2.0000      -1.219391       -33.1813
   7   2.0000      -1.011627       -27.5278
   8   2.0000      -0.927123       -25.2283
   9   2.0000      -0.780956       -21.2509
  10   2.0000      -0.682796       -18.5798
  11   2.0000      -0.641228       -17.4487
  12   2.0000      -0.626035       -17.0353
  13   2.0000      -0.578727       -15.7480
  14   2.0000      -0.572551       -15.5799
  15   2.0000      -0.552920       -15.0457
  16   2.0000      -0.541274       -14.7288
  17   2.0000      -0.495097       -13.4723
  18   2.0000      -0.412087       -11.2134
  19   2.0000      -0.382947       -10.4205
  20   0.0000       0.168346         4.5809
  21   0.0000       0.194611         5.2956
  22   0.0000       0.202991         5.5237
  23   0.0000       0.222982         6.0676
  24   0.0000       0.258796         7.0422

MULLIKEN ATOMIC CHARGES
-----------------------
   0 C :   -0.032039
   1 C :    0.289084
   2 N :   -0.379763
   3 C :    0.120057
   4 O :   -0.422513
   5 H :    0.115942
   6 H :    0.054685
   7 H :    0.068597
   8 H :    0.054702
   9 H :    0.030280
  10 H :    0.050419
  11 H :    0.050549
Sum of atomic charges:   -0.0000000

LOEWDIN ATOMIC CHARGES
----------------------
   0 C :   -0.060404
   1 C :   -0.036001
   2 N :    0.036684
   3 C :    0.002272
   4 O :   -0.180195
   5 H :    0.053238
   6 H :    0.034720
   7 H :    0.041833
   8 H :    0.034733
   9 H :    0.021756
  10 H :    0.025643
  11 H :    0.025722

  Mayer bond orders larger than 0.1
B(  0-C ,  1-C ) :   1.0211 B(  0-C ,  6-H ) :   0.9691 B(  0-C ,  7-H ) :   0.9784
B(  0-C ,  8-H ) :   0.9690 B(  1-C ,  2-N ) :   1.1810 B(  1-C ,  4-O ) :   1.9962
B(  2-N ,  3-C ) :   0.9640 B(  2-N ,  5-H ) :   0.9724 B(  3-C ,  9-H ) :   0.9858
B(  3-C , 10-H ) :   0.9844 B(  3-C , 11-H ) :   0.9844

E(0)                                       ...   -247.025296708
E(0)                                       ...   -247.025296708
E(CORR)(strong-pairs)                      ...     -0.811458486
E(CORR)(weak-pairs)                        ...     -0.000220451
E(CORR)(corrected)                         ...     -0.811678937
E(TOT)                                     ...   -247.836975645
E(CCSD(T))                                 ...   -247.860986860
FINAL SINGLE POINT ENERGY      -247.860986860484

DIPOLE MOMENT
-------------
                                X             Y             Z
Electronic contribution:      0.73892       2.18518      -0.00069
Nuclear contribution   :     -0.92695      -3.79544       0.00099
                        -----------------------------------------
Total Dipole Moment    :     -0.18803      -1.61026       0.00031
                        -----------------------------------------
Magnitude (a.u.)       :      1.62120
Magnitude (Debye)      :      4.12077

Rotational constants in cm-1:     0.331891     0.128363     0.095894
Rotational constants in MHz :  9949.837024  3848.224970  2874.842742

                             ****ORCA TERMINATED NORMALLY****
TOTAL RUN TIME: 0 days 0 hours 0 minutes 57 seconds 264 msec
