                         Program Version 4.1.x  -  STABLE  -
|  1> ! RHF DLPNO-CCSD(T) cc-pVDZ RIJK cc-pVTZ/JK cc-pVDZ/C
|  2> ! KDIIS SOSCF TightSCF TightPNO
|  3>
|  4> %pal nprocs 4 end
|  5>
|  6> %maxcore 8000
|  7>
|  8> %scf maxiter 300
|  9>      shift shift 0.2 erroff 0.1 end
| 10> end
| 11>
| 12> * xyzfile 0 1 N_Me_Acetamide_ts.xyz
| 13>
| 14>
| 15>                          ****END OF INPUT****

CARTESIAN COORDINATES (ANGSTROEM)
---------------------------------
  C     -1.367900   -1.026800   -0.087700
  C     -0.523900    0.221100    0.087800
  N      0.752600    0.022000    0.566500
  C      1.853900   -0.187800   -0.340400
  O     -0.953900    1.318900   -0.174500
  H     -0.883500   -1.718100   -0.814700
  H     -1.483700   -1.550400    0.887700
  H     -2.383600   -0.774600   -0.471700
  H      0.885000    0.034600    1.579600
  H      1.528700   -0.149100   -1.405600
  H      2.621900    0.598600   -0.166900
  H      2.305300   -1.185100   -0.135600

 Total Charge           Charge          ....    0
 Multiplicity           Mult            ....    1
 Number of Electrons    NEL             ....   40
 Basis Dimension        Dim             ....  105

ORBITAL ENERGIES
----------------

  NO   OCC          E(Eh)            E(eV)
   0   2.0000     -20.541933      -558.9744
   1   2.0000     -15.544087      -422.9761
   2   2.0000     -11.351587      -308.8924
   3   2.0000     -11.276588      -306.8515
   4   2.0000     -11.241690      -305.9019
   5   2.0000      -1.393665       -37.9236
   6   2.0000      -1.210324       -32.9346
   7   2.0000      -0.997000       -27.1297
   8   2.0000      -0.924211       -25.1491
   9   2.0000      -0.769588       -20.9415
  10   2.0000      -0.677356       -18.4318
  11   2.0000      -0.641605       -17.4590
  12   2.0000      -0.637895       -17.3580
  13   2.0000      -0.582092       -15.8395
  14   2.0000      -0.573965       -15.6184
  15   2.0000      -0.557445       -15.1689
  16   2.0000      -0.536230       -14.5916
  17   2.0000      -0.482911       -13.1407
  18   2.0000      -0.424133       -11.5413
  19   2.0000      -0.366252        -9.9662
  20   0.0000       0.151658         4.1268
  21   0.0000       0.178675         4.8620
  22   0.0000       0.206153         5.6097
  23   0.0000       0.220757         6.0071
  24   0.0000       0.254372         6.9218

MULLIKEN ATOMIC CHARGES
-----------------------
   0 C :   -0.048169
   1 C :    0.269741
   2 N :   -0.435225
   3 C :    0.094622
   4 O :   -0.308133
   5 H :    0.053432
   6 H :    0.052504
   7 H :    0.056515
   8 H :    0.131635
   9 H :    0.052526
  10 H :    0.048024
  11 H :    0.032528
Sum of atomic charges:    0.0000000

LOEWDIN ATOMIC CHARGES
----------------------
   0 C :   -0.072394
   1 C :   -0.048528
   2 N :   -0.026030
   3 C :   -0.012312
   4 O :   -0.077127
   5 H :    0.037052
   6 H :    0.036601
   7 H :    0.035004
   8 H :    0.059255
   9 H :    0.031505
  10 H :    0.022483
  11 H :    0.014491

  Mayer bond orders larger than 0.1
B(  0-C ,  1-C ) :   1.0245 B(  0-C ,  5-H ) :   0.9670 B(  0-C ,  6-H ) :   0.9675
B(  0-C ,  7-H ) :   0.9775 B(  1-C ,  2-N ) :   1.0295 B(  1-C ,  4-O ) :   2.1545
B(  2-N ,  3-C ) :   0.9825 B(  2-N ,  8-H ) :   0.9650 B(  3-C ,  9-H ) :   0.9828
B(  3-C , 10-H ) :   0.9860 B(  3-C , 11-H ) :   0.9838

E(0)                                       ...   -246.983140349
E(0)                                       ...   -246.983140349
E(CORR)(strong-pairs)                      ...     -0.811884560
E(CORR)(weak-pairs)                        ...     -0.000217906
E(CORR)(corrected)                         ...     -0.812102466
E(TOT)                                     ...   -247.795242815
E(CCSD(T))                                 ...   -247.818644360
FINAL SINGLE POINT ENERGY      -247.818644360446

DIPOLE MOMENT
-------------
                                X             Y             Z
Electronic contribution:     -2.06151       3.75501       0.86875
Nuclear contribution   :      2.65110      -4.85424      -0.54133
                        -----------------------------------------
Total Dipole Moment    :      0.58958      -1.09923       0.32742
                        -----------------------------------------
Magnitude (a.u.)       :      1.28962
Magnitude (Debye)      :      3.27794

Rotational constants in cm-1:     0.273927     0.133094     0.103641
Rotational constants in MHz :  8212.124671  3990.046857  3107.072430

                             ****ORCA TERMINATED NORMALLY****
TOTAL RUN TIME: 0 days 0 hours 1 minutes 4 seconds 672 msec
