                         Program Version 4.1.x  -  STABLE  -
|  1> ! RHF DLPNO-CCSD(T) cc-pVDZ RIJK cc-pVTZ/JK cc-pVDZ/C
|  2> ! KDIIS SOSCF TightSCF TightPNO
|  3>
|  4> %pal nprocs 4 end
|  5>
|  6> %maxcore 8000
|  7>
|  8> %scf maxiter 300
|  9>      shift shift 0.2 erroff 0.1 end
| 10> end
| 11>
| 12> * xyzfile 1 1 N_Me_piperidinium_eq.xyz
| 13>
| 14>
| 15>                          ****END OF INPUT****

CARTESIAN COORDINATES (ANGSTROEM)
---------------------------------
  C      1.922630    0.000000    0.261240
  C      1.190230   -1.262280   -0.215080
  C     -0.278320   -1.257150    0.204080
  N     -0.980100   -0.000000   -0.289340
  C     -0.278330    1.257150    0.204090
  C      1.190220    1.262280   -0.215080
  C     -2.444310   -0.000000    0.049940
  H     -0.830760   -2.107660   -0.202650
  H     -0.391920   -1.254620    1.292400
  H     -0.391930    1.254610    1.292400
  H     -0.830750    2.107670   -0.202650
  H      1.260890   -1.355970   -1.307440
  H      1.649410   -2.165170    0.199790
  H      1.649410    2.165170    0.199790
  H      1.260880    1.355980   -1.307440
  H      1.987930    0.000000    1.356890
  H      2.949630    0.000000   -0.114150
  H     -2.906410    0.894260   -0.369850
  H     -2.906410   -0.894260   -0.369840
  H     -2.549040    0.000010    1.135380
  H     -0.903050    0.000000   -1.312380

 Total Charge           Charge          ....    1
 Multiplicity           Mult            ....    1
 Number of Electrons    NEL             ....   56
 Basis Dimension        Dim             ....  168

ORBITAL ENERGIES
----------------

  NO   OCC          E(Eh)            E(eV)
   0   2.0000     -15.863426      -431.6658
   1   2.0000     -11.459650      -311.8329
   2   2.0000     -11.458902      -311.8126
   3   2.0000     -11.458887      -311.8122
   4   2.0000     -11.394656      -310.0643
   5   2.0000     -11.394654      -310.0643
   6   2.0000     -11.381200      -309.6982
   7   2.0000      -1.494062       -40.6555
   8   2.0000      -1.253590       -34.1119
   9   2.0000      -1.210944       -32.9515
  10   2.0000      -1.140776       -31.0421
  11   2.0000      -1.066438       -29.0192
  12   2.0000      -1.039463       -28.2852
  13   2.0000      -0.971251       -26.4291
  14   2.0000      -0.875449       -23.8222
  15   2.0000      -0.850638       -23.1470
  16   2.0000      -0.831174       -22.6174
  17   2.0000      -0.794864       -21.6293
  18   2.0000      -0.772495       -21.0207
  19   2.0000      -0.752790       -20.4845
  20   2.0000      -0.735767       -20.0212
  21   2.0000      -0.729466       -19.8498
  22   2.0000      -0.716699       -19.5024
  23   2.0000      -0.702681       -19.1209
  24   2.0000      -0.675833       -18.3903
  25   2.0000      -0.630192       -17.1484
  26   2.0000      -0.626054       -17.0358
  27   2.0000      -0.624001       -16.9799
  28   0.0000      -0.008869        -0.2413
  29   0.0000       0.023586         0.6418
  30   0.0000       0.043276         1.1776
  31   0.0000       0.048724         1.3258
  32   0.0000       0.068599         1.8667

MULLIKEN ATOMIC CHARGES
-----------------------
   0 C :   -0.058274
   1 C :   -0.058377
   2 C :    0.065826
   3 N :   -0.332999
   4 C :    0.065834
   5 C :   -0.058387
   6 C :    0.071975
   7 H :    0.095775
   8 H :    0.094122
   9 H :    0.094121
  10 H :    0.095776
  11 H :    0.060884
  12 H :    0.087305
  13 H :    0.087306
  14 H :    0.060884
  15 H :    0.057886
  16 H :    0.078384
  17 H :    0.101715
  18 H :    0.101714
  19 H :    0.101661
  20 H :    0.186869
Sum of atomic charges:    1.0000000

LOEWDIN ATOMIC CHARGES
----------------------
   0 C :   -0.023363
   1 C :   -0.029830
   2 C :    0.049811
   3 N :    0.267145
   4 C :    0.049813
   5 C :   -0.029830
   6 C :    0.049800
   7 H :    0.044069
   8 H :    0.041577
   9 H :    0.041575
  10 H :    0.044071
  11 H :    0.032801
  12 H :    0.051933
  13 H :    0.051933
  14 H :    0.032801
  15 H :    0.031900
  16 H :    0.044776
  17 H :    0.048302
  18 H :    0.048301
  19 H :    0.048280
  20 H :    0.104137

  Mayer bond orders larger than 0.1
B(  0-C ,  1-C ) :   1.0402 B(  0-C ,  5-C ) :   1.0402 B(  0-C , 15-H ) :   0.9637
B(  0-C , 16-H ) :   0.9689 B(  1-C ,  2-C ) :   1.0482 B(  1-C , 11-H ) :   0.9611
B(  1-C , 12-H ) :   0.9623 B(  2-C ,  3-N ) :   0.8531 B(  2-C ,  7-H ) :   0.9711
B(  2-C ,  8-H ) :   0.9627 B(  3-N ,  4-C ) :   0.8531 B(  3-N ,  6-C ) :   0.8991
B(  3-N , 20-H ) :   0.9276 B(  4-C ,  5-C ) :   1.0482 B(  4-C ,  9-H ) :   0.9627
B(  4-C , 10-H ) :   0.9711 B(  5-C , 13-H ) :   0.9623 B(  5-C , 14-H ) :   0.9611
B(  6-C , 17-H ) :   0.9787 B(  6-C , 18-H ) :   0.9787 B(  6-C , 19-H ) :   0.9775

E(0)                                       ...   -289.630194500
E(0)                                       ...   -289.630194500
E(CORR)(strong-pairs)                      ...     -1.105880346
E(CORR)(weak-pairs)                        ...     -0.000476179
E(CORR)(corrected)                         ...     -1.106356525
E(TOT)                                     ...   -290.736551024
E(CCSD(T))                                 ...   -290.769668737
FINAL SINGLE POINT ENERGY      -290.769668736533

DIPOLE MOMENT
-------------
                                X             Y             Z
Electronic contribution:     -0.18368      -0.00001      -0.55409
Nuclear contribution   :     -1.02348       0.00002       0.30832
                        -----------------------------------------
Total Dipole Moment    :     -1.20716       0.00000      -0.24576
                        -----------------------------------------
Magnitude (a.u.)       :      1.23192
Magnitude (Debye)      :      3.13130

Rotational constants in cm-1:     0.141153     0.073507     0.053316
Rotational constants in MHz :  4231.660093  2203.690779  1598.374021

                             ****ORCA TERMINATED NORMALLY****
TOTAL RUN TIME: 0 days 0 hours 2 minutes 59 seconds 592 msec
