                         Program Version 4.1.x  -  STABLE  -
|  1> ! RHF DLPNO-CCSD(T) cc-pVDZ RIJK cc-pVTZ/JK cc-pVDZ/C
|  2> ! KDIIS SOSCF TightSCF TightPNO
|  3>
|  4> %pal nprocs 4 end
|  5>
|  6> %maxcore 8000
|  7>
|  8> %scf maxiter 300
|  9>      shift shift 0.2 erroff 0.1 end
| 10> end
| 11>
| 12> * xyzfile 0 1 N_Me_piperidine_eq.xyz
| 13>
| 14>
| 15>                          ****END OF INPUT****

CARTESIAN COORDINATES (ANGSTROEM)
---------------------------------
  C      1.900080    0.000000    0.240050
  C      1.156670   -1.259180   -0.226900
  C     -0.317070   -1.211620    0.188750
  N     -0.972740   -0.000010   -0.307660
  C     -0.317100    1.211610    0.188750
  C      1.156640    1.259220   -0.226900
  C     -2.398710   -0.000020   -0.015690
  H     -0.851980   -2.079080   -0.214880
  H     -0.389150   -1.274000    1.296650
  H     -0.389180    1.274000    1.296650
  H     -0.852030    2.079060   -0.214880
  H      1.212260   -1.336390   -1.320320
  H      1.622180   -2.161410    0.188400
  H      1.622130    2.161450    0.188400
  H      1.212230    1.336410   -1.320320
  H      1.960930    0.000010    1.338120
  H      2.931410   -0.000010   -0.132700
  H     -2.867440    0.886360   -0.455540
  H     -2.867450   -0.886380   -0.455560
  H     -2.617720   -0.000030    1.071290

 Total Charge           Charge          ....    0
 Multiplicity           Mult            ....    1
 Number of Electrons    NEL             ....   56
 Basis Dimension        Dim             ....  163

ORBITAL ENERGIES
----------------

  NO   OCC          E(Eh)            E(eV)
   0   2.0000     -15.540646      -422.8825
   1   2.0000     -11.246848      -306.0423
   2   2.0000     -11.246832      -306.0419
   3   2.0000     -11.245378      -306.0023
   4   2.0000     -11.221609      -305.3555
   5   2.0000     -11.220073      -305.3137
   6   2.0000     -11.219949      -305.3103
   7   2.0000      -1.225148       -33.3380
   8   2.0000      -1.065977       -29.0067
   9   2.0000      -1.009591       -27.4724
  10   2.0000      -0.930030       -25.3074
  11   2.0000      -0.843672       -22.9575
  12   2.0000      -0.828597       -22.5473
  13   2.0000      -0.748349       -20.3636
  14   2.0000      -0.653119       -17.7723
  15   2.0000      -0.619505       -16.8576
  16   2.0000      -0.619417       -16.8552
  17   2.0000      -0.603755       -16.4290
  18   2.0000      -0.573454       -15.6045
  19   2.0000      -0.548008       -14.9120
  20   2.0000      -0.530755       -14.4426
  21   2.0000      -0.528562       -14.3829
  22   2.0000      -0.497572       -13.5396
  23   2.0000      -0.483606       -13.1596
  24   2.0000      -0.460586       -12.5332
  25   2.0000      -0.440435       -11.9848
  26   2.0000      -0.439084       -11.9481
  27   2.0000      -0.346443        -9.4272
  28   0.0000       0.181801         4.9470
  29   0.0000       0.201119         5.4727
  30   0.0000       0.211790         5.7631
  31   0.0000       0.213875         5.8198
  32   0.0000       0.248866         6.7720

MULLIKEN ATOMIC CHARGES
-----------------------
   0 C :   -0.061722
   1 C :   -0.022131
   2 C :    0.114283
   3 N :   -0.512943
   4 C :    0.114280
   5 C :   -0.022134
   6 C :    0.115098
   7 H :    0.026645
   8 H :    0.000542
   9 H :    0.000542
  10 H :    0.026645
  11 H :    0.031856
  12 H :    0.022565
  13 H :    0.022566
  14 H :    0.031857
  15 H :    0.021984
  16 H :    0.026128
  17 H :    0.031129
  18 H :    0.031129
  19 H :    0.001680
Sum of atomic charges:   -0.0000000

LOEWDIN ATOMIC CHARGES
----------------------
   0 C :   -0.034983
   1 C :   -0.033079
   2 C :   -0.007705
   3 N :   -0.040756
   4 C :   -0.007708
   5 C :   -0.033073
   6 C :   -0.019626
   7 H :    0.017202
   8 H :   -0.004171
   9 H :   -0.004171
  10 H :    0.017202
  11 H :    0.019917
  12 H :    0.020351
  13 H :    0.020349
  14 H :    0.019916
  15 H :    0.015818
  16 H :    0.019426
  17 H :    0.018124
  18 H :    0.018123
  19 H :   -0.001155

  Mayer bond orders larger than 0.1
B(  0-C ,  1-C ) :   1.0470 B(  0-C ,  5-C ) :   1.0470 B(  0-C , 15-H ) :   0.9640
B(  0-C , 16-H ) :   0.9743 B(  1-C ,  2-C ) :   1.0565 B(  1-C , 11-H ) :   0.9604
B(  1-C , 12-H ) :   0.9695 B(  2-C ,  3-N ) :   0.9835 B(  2-C ,  7-H ) :   0.9737
B(  2-C ,  8-H ) :   0.9535 B(  3-N ,  4-C ) :   0.9835 B(  3-N ,  6-C ) :   1.0129
B(  4-C ,  5-C ) :   1.0565 B(  4-C ,  9-H ) :   0.9535 B(  4-C , 10-H ) :   0.9737
B(  5-C , 13-H ) :   0.9696 B(  5-C , 14-H ) :   0.9604 B(  6-C , 17-H ) :   0.9876
B(  6-C , 18-H ) :   0.9876 B(  6-C , 19-H ) :   0.9702

E(0)                                       ...   -289.239159671
E(0)                                       ...   -289.239159671
E(CORR)(strong-pairs)                      ...     -1.108255711
E(CORR)(weak-pairs)                        ...     -0.000468340
E(CORR)(corrected)                         ...     -1.108724052
E(TOT)                                     ...   -290.347883723
E(CCSD(T))                                 ...   -290.381726619
FINAL SINGLE POINT ENERGY      -290.381726618563

DIPOLE MOMENT
-------------
                                X             Y             Z
Electronic contribution:      0.30358      -0.00000      -1.14118
Nuclear contribution   :     -0.29643      -0.00001       1.33987
                        -----------------------------------------
Total Dipole Moment    :      0.00715      -0.00001       0.19868
                        -----------------------------------------
Magnitude (a.u.)       :      0.19881
Magnitude (Debye)      :      0.50534

Rotational constants in cm-1:     0.147229     0.076314     0.055039
Rotational constants in MHz :  4413.827562  2287.821804  1650.026309

                             ****ORCA TERMINATED NORMALLY****
TOTAL RUN TIME: 0 days 0 hours 2 minutes 49 seconds 203 msec
