                         Program Version 4.1.x  -  STABLE  -
|  1> ! RHF DLPNO-CCSD(T) cc-pVDZ RIJK cc-pVTZ/JK cc-pVDZ/C
|  2> ! KDIIS SOSCF TightSCF TightPNO
|  3>
|  4> %pal nprocs 4 end
|  5>
|  6> %maxcore 8000
|  7>
|  8> %scf maxiter 300
|  9>      shift shift 0.2 erroff 0.1 end
| 10> end
| 11>
| 12> * xyzfile 0 1 NAPA_anti.xyz
| 13>
| 14>
| 15>                          ****END OF INPUT****

CARTESIAN COORDINATES (ANGSTROEM)
---------------------------------
  C      4.287860   -0.391770    0.589070
  C      3.498670   -1.542250    0.671610
  C      2.220070   -1.554050    0.109190
  C      1.707100   -0.421080   -0.540920
  C      2.507900    0.728010   -0.618170
  C      3.787960    0.741750   -0.057420
  C      0.313120   -0.452880   -1.139260
  C     -0.788410   -0.033980   -0.150480
  C     -0.800570    1.496060    0.100890
  N     -1.371360    1.854770    1.280340
  N     -2.106000   -0.442410   -0.651000
  C     -3.159100   -0.699310    0.176250
  O     -3.065610   -0.598080    1.403470
  C     -4.452190   -1.126010   -0.490280
  O     -0.351410    2.298750   -0.712190
  H     -4.384110   -1.188570   -1.579770
  H     -5.238420   -0.415500   -0.219920
  H     -4.741830   -2.103030   -0.093540
  H     -0.650030   -0.548030    0.804990
  H     -1.523990    2.839200    1.450180
  H     -2.255860   -0.430870   -1.650430
  H     -1.904730    1.170020    1.807100
  H      0.265440    0.205380   -2.013290
  H      0.086830   -1.473610   -1.468130
  H      2.116410    1.614210   -1.108030
  H      1.616180   -2.457020    0.169910
  H      3.878700   -2.430990    1.167660
  H      4.394680    1.640280   -0.127380
  H      5.283960   -0.380310    1.022240

 Total Charge           Charge          ....    0
 Multiplicity           Mult            ....    1
 Number of Electrons    NEL             ....  110
 Basis Dimension        Dim             ....  280

ORBITAL ENERGIES
----------------

  NO   OCC          E(Eh)            E(eV)
   0   2.0000     -20.532316      -558.7127
   1   2.0000     -20.518938      -558.3487
   2   2.0000     -15.606725      -424.6806
   3   2.0000     -15.575655      -423.8351
   4   2.0000     -11.373544      -309.4899
   5   2.0000     -11.352593      -308.9198
   6   2.0000     -11.291131      -307.2473
   7   2.0000     -11.257801      -306.3403
   8   2.0000     -11.245477      -306.0050
   9   2.0000     -11.243586      -305.9535
  10   2.0000     -11.237331      -305.7833
  11   2.0000     -11.236048      -305.7484
  12   2.0000     -11.235292      -305.7278
  13   2.0000     -11.234176      -305.6975
  14   2.0000     -11.229870      -305.5803
  15   2.0000      -1.390579       -37.8396
  16   2.0000      -1.372611       -37.3506
  17   2.0000      -1.247866       -33.9562
  18   2.0000      -1.199133       -32.6301
  19   2.0000      -1.149773       -31.2869
  20   2.0000      -1.071762       -29.1641
  21   2.0000      -1.023488       -27.8505
  22   2.0000      -1.007786       -27.4233
  23   2.0000      -0.979207       -26.6456
  24   2.0000      -0.898209       -24.4415
  25   2.0000      -0.822155       -22.3720
  26   2.0000      -0.820308       -22.3217
  27   2.0000      -0.790044       -21.4982
  28   2.0000      -0.777166       -21.1478
  29   2.0000      -0.722071       -19.6485
  30   2.0000      -0.699321       -19.0295
  31   2.0000      -0.684683       -18.6312
  32   2.0000      -0.672386       -18.2965
  33   2.0000      -0.664940       -18.0939
  34   2.0000      -0.629868       -17.1396
  35   2.0000      -0.626860       -17.0577
  36   2.0000      -0.619789       -16.8653
  37   2.0000      -0.594173       -16.1683
  38   2.0000      -0.593388       -16.1469
  39   2.0000      -0.578910       -15.7529
  40   2.0000      -0.576659       -15.6917
  41   2.0000      -0.560490       -15.2517
  42   2.0000      -0.543348       -14.7852
  43   2.0000      -0.539139       -14.6707
  44   2.0000      -0.527089       -14.3428
  45   2.0000      -0.518385       -14.1060
  46   2.0000      -0.485516       -13.2116
  47   2.0000      -0.483693       -13.1620
  48   2.0000      -0.479071       -13.0362
  49   2.0000      -0.441712       -12.0196
  50   2.0000      -0.431475       -11.7410
  51   2.0000      -0.404090       -10.9958
  52   2.0000      -0.390404       -10.6234
  53   2.0000      -0.329212        -8.9583
  54   2.0000      -0.323168        -8.7938
  55   0.0000       0.133705         3.6383
  56   0.0000       0.137832         3.7506
  57   0.0000       0.160668         4.3720
  58   0.0000       0.170448         4.6381
  59   0.0000       0.188337         5.1249

MULLIKEN ATOMIC CHARGES
-----------------------
   0 C :   -0.026474
   1 C :   -0.012252
   2 C :    0.006400
   3 C :   -0.228796
   4 C :    0.016304
   5 C :   -0.009173
   6 C :    0.131540
   7 C :    0.019434
   8 C :    0.380921
   9 N :   -0.229077
  10 N :   -0.359119
  11 C :    0.318172
  12 O :   -0.460450
  13 C :   -0.008396
  14 O :   -0.428427
  15 H :    0.036529
  16 H :    0.075782
  17 H :    0.077520
  18 H :    0.065685
  19 H :    0.127641
  20 H :    0.130575
  21 H :    0.158956
  22 H :    0.056532
  23 H :    0.031678
  24 H :    0.043558
  25 H :    0.010349
  26 H :    0.024221
  27 H :    0.026608
  28 H :    0.023757
Sum of atomic charges:    0.0000000

LOEWDIN ATOMIC CHARGES
----------------------
   0 C :   -0.029844
   1 C :   -0.027316
   2 C :   -0.029950
   3 C :   -0.034695
   4 C :   -0.015431
   5 C :   -0.024092
   6 C :   -0.009406
   7 C :   -0.005877
   8 C :   -0.030807
   9 N :    0.057892
  10 N :    0.068967
  11 C :   -0.020072
  12 O :   -0.199918
  13 C :   -0.050959
  14 O :   -0.184410
  15 H :    0.025455
  16 H :    0.047877
  17 H :    0.049134
  18 H :    0.032718
  19 H :    0.062033
  20 H :    0.060643
  21 H :    0.060574
  22 H :    0.032994
  23 H :    0.025866
  24 H :    0.033381
  25 H :    0.023159
  26 H :    0.027122
  27 H :    0.028309
  28 H :    0.026655

  Mayer bond orders larger than 0.1
B(  0-C ,  1-C ) :   1.4537 B(  0-C ,  5-C ) :   1.4538 B(  0-C , 28-H ) :   0.9773
B(  1-C ,  2-C ) :   1.4708 B(  1-C , 26-H ) :   0.9743 B(  2-C ,  3-C ) :   1.4247
B(  2-C , 25-H ) :   0.9723 B(  3-C ,  4-C ) :   1.4453 B(  3-C ,  6-C ) :   1.0780
B(  4-C ,  5-C ) :   1.4593 B(  4-C , 24-H ) :   0.9639 B(  5-C , 27-H ) :   0.9749
B(  6-C ,  7-C ) :   1.0358 B(  6-C , 22-H ) :   0.9361 B(  6-C , 23-H ) :   0.9540
B(  7-C ,  8-C ) :   0.9176 B(  7-C , 10-N ) :   0.9231 B(  7-C , 18-H ) :   0.9548
B(  8-C ,  9-N ) :   1.2902 B(  8-C , 14-O ) :   1.9808 B(  9-N , 19-H ) :   0.9662
B(  9-N , 21-H ) :   0.9434 B( 10-N , 11-C ) :   1.1970 B( 10-N , 20-H ) :   0.9607
B( 11-C , 12-O ) :   1.9008 B( 11-C , 13-C ) :   1.0260 B( 13-C , 15-H ) :   0.9772
B( 13-C , 16-H ) :   0.9648 B( 13-C , 17-H ) :   0.9647

E(0)                                       ...   -683.431471130
E(0)                                       ...   -683.431471130
E(CORR)(strong-pairs)                      ...     -2.243033970
E(CORR)(weak-pairs)                        ...     -0.002133596
E(CORR)(corrected)                         ...     -2.245167566
E(TOT)                                     ...   -685.676638696
E(CCSD(T))                                 ...   -685.758391659
FINAL SINGLE POINT ENERGY      -685.758391658508

DIPOLE MOMENT
-------------
                                X             Y             Z
Electronic contribution:      2.28345       3.17264       1.31293
Nuclear contribution   :     -3.13625      -3.93026      -1.82686
                        -----------------------------------------
Total Dipole Moment    :     -0.85280      -0.75763      -0.51394
                        -----------------------------------------
Magnitude (a.u.)       :      1.25116
Magnitude (Debye)      :      3.18020

Rotational constants in cm-1:     0.039320     0.010515     0.009479
Rotational constants in MHz :  1178.776086   315.244915   284.175267

                             ****ORCA TERMINATED NORMALLY****
TOTAL RUN TIME: 0 days 0 hours 17 minutes 0 seconds 700 msec
