                         Program Version 4.1.x  -  STABLE  -
|  1> ! RHF DLPNO-CCSD(T) cc-pVDZ RIJK cc-pVTZ/JK cc-pVDZ/C
|  2> ! KDIIS SOSCF TightSCF TightPNO
|  3>
|  4> %pal nprocs 4 end
|  5>
|  6> %maxcore 8000
|  7>
|  8> %scf maxiter 300
|  9>      shift shift 0.2 erroff 0.1 end
| 10> end
| 11>
| 12> * xyzfile 0 1 NAPA_b.xyz
| 13>
| 14>
| 15>                          ****END OF INPUT****

CARTESIAN COORDINATES (ANGSTROEM)
---------------------------------
  C     -4.124600   -0.729530   -0.250480
  C     -3.122460   -1.522810   -0.818660
  C     -1.790590   -1.356840   -0.431550
  C     -1.434090   -0.391070    0.525930
  C     -2.449520    0.395880    1.089310
  C     -3.784400    0.228400    0.707830
  C      0.013820   -0.223350    0.934120
  C      0.943450    0.356690   -0.179110
  C      0.723730    1.862450   -0.393750
  N     -0.395980    2.207900   -1.079560
  N      2.341870    0.176150    0.157290
  C      2.980930   -1.011860   -0.033330
  O      2.390860   -2.011850   -0.447240
  C      4.460650   -1.034260    0.304710
  O      1.523440    2.694280    0.032120
  H      4.848310   -0.064970    0.629790
  H      5.015620   -1.367320   -0.576690
  H      4.629100   -1.770330    1.096190
  H      0.739260   -0.185160   -1.109280
  H     -0.623970    3.189710   -1.148240
  H      2.840790    1.016980    0.424700
  H     -1.106070    1.529210   -1.312110
  H      0.093530    0.409230    1.824840
  H      0.434280   -1.202010    1.184450
  H     -2.193200    1.142890    1.836580
  H     -1.019310   -1.991390   -0.861910
  H     -3.378570   -2.278340   -1.556010
  H     -4.556040    0.844070    1.161460
  H     -5.160910   -0.862560   -0.547070

 Total Charge           Charge          ....    0
 Multiplicity           Mult            ....    1
 Number of Electrons    NEL             ....  110
 Basis Dimension        Dim             ....  280

ORBITAL ENERGIES
----------------

  NO   OCC          E(Eh)            E(eV)
   0   2.0000     -20.531471      -558.6897
   1   2.0000     -20.513228      -558.1933
   2   2.0000     -15.594382      -424.3447
   3   2.0000     -15.583425      -424.0465
   4   2.0000     -11.367181      -309.3167
   5   2.0000     -11.354122      -308.9614
   6   2.0000     -11.291485      -307.2569
   7   2.0000     -11.255046      -306.2654
   8   2.0000     -11.249765      -306.1217
   9   2.0000     -11.249256      -306.1078
  10   2.0000     -11.247279      -306.0540
  11   2.0000     -11.247178      -306.0513
  12   2.0000     -11.246907      -306.0439
  13   2.0000     -11.245223      -305.9981
  14   2.0000     -11.242463      -305.9230
  15   2.0000      -1.389309       -37.8050
  16   2.0000      -1.369577       -37.2681
  17   2.0000      -1.231367       -33.5072
  18   2.0000      -1.217124       -33.1196
  19   2.0000      -1.161544       -31.6072
  20   2.0000      -1.072464       -29.1832
  21   2.0000      -1.021396       -27.7936
  22   2.0000      -1.019483       -27.7415
  23   2.0000      -0.975828       -26.5536
  24   2.0000      -0.906044       -24.6547
  25   2.0000      -0.834669       -22.7125
  26   2.0000      -0.814275       -22.1576
  27   2.0000      -0.803318       -21.8594
  28   2.0000      -0.777614       -21.1599
  29   2.0000      -0.738123       -20.0854
  30   2.0000      -0.702106       -19.1053
  31   2.0000      -0.685017       -18.6403
  32   2.0000      -0.661059       -17.9883
  33   2.0000      -0.645991       -17.5783
  34   2.0000      -0.638978       -17.3875
  35   2.0000      -0.637529       -17.3481
  36   2.0000      -0.621998       -16.9254
  37   2.0000      -0.600083       -16.3291
  38   2.0000      -0.590604       -16.0712
  39   2.0000      -0.586686       -15.9646
  40   2.0000      -0.579299       -15.7635
  41   2.0000      -0.563557       -15.3352
  42   2.0000      -0.547741       -14.9048
  43   2.0000      -0.543558       -14.7910
  44   2.0000      -0.536453       -14.5976
  45   2.0000      -0.505266       -13.7490
  46   2.0000      -0.495225       -13.4758
  47   2.0000      -0.492291       -13.3959
  48   2.0000      -0.483837       -13.1659
  49   2.0000      -0.432060       -11.7569
  50   2.0000      -0.420373       -11.4389
  51   2.0000      -0.415004       -11.2928
  52   2.0000      -0.387413       -10.5420
  53   2.0000      -0.343237        -9.3400
  54   2.0000      -0.333384        -9.0718
  55   0.0000       0.120405         3.2764
  56   0.0000       0.125332         3.4104
  57   0.0000       0.170932         4.6513
  58   0.0000       0.182663         4.9705
  59   0.0000       0.187996         5.1156

MULLIKEN ATOMIC CHARGES
-----------------------
   0 C :   -0.030600
   1 C :   -0.006097
   2 C :   -0.001478
   3 C :   -0.258580
   4 C :    0.002543
   5 C :   -0.010867
   6 C :    0.138405
   7 C :    0.025073
   8 C :    0.373809
   9 N :   -0.222095
  10 N :   -0.355104
  11 C :    0.303875
  12 O :   -0.448835
  13 C :   -0.008718
  14 O :   -0.430764
  15 H :    0.038102
  16 H :    0.070234
  17 H :    0.070580
  18 H :    0.063186
  19 H :    0.135904
  20 H :    0.146071
  21 H :    0.149799
  22 H :    0.033359
  23 H :    0.073347
  24 H :    0.017616
  25 H :    0.042364
  26 H :    0.031707
  27 H :    0.029090
  28 H :    0.028077
Sum of atomic charges:   -0.0000000

LOEWDIN ATOMIC CHARGES
----------------------
   0 C :   -0.031520
   1 C :   -0.022458
   2 C :   -0.027226
   3 C :   -0.042359
   4 C :   -0.031427
   5 C :   -0.025275
   6 C :   -0.005564
   7 C :   -0.011321
   8 C :   -0.021427
   9 N :    0.064179
  10 N :    0.070457
  11 C :   -0.029462
  12 O :   -0.202129
  13 C :   -0.053620
  14 O :   -0.185070
  15 H :    0.025912
  16 H :    0.045404
  17 H :    0.045348
  18 H :    0.029579
  19 H :    0.067536
  20 H :    0.059494
  21 H :    0.064624
  22 H :    0.026059
  23 H :    0.041903
  24 H :    0.026199
  25 H :    0.034360
  26 H :    0.030314
  27 H :    0.029112
  28 H :    0.028378

  Mayer bond orders larger than 0.1
B(  0-C ,  1-C ) :   1.4467 B(  0-C ,  5-C ) :   1.4606 B(  0-C , 28-H ) :   0.9774
B(  1-C ,  2-C ) :   1.4729 B(  1-C , 26-H ) :   0.9748 B(  2-C ,  3-C ) :   1.4207
B(  2-C , 25-H ) :   0.9687 B(  3-C ,  4-C ) :   1.4387 B(  3-C ,  6-C ) :   1.0501
B(  4-C ,  5-C ) :   1.4606 B(  4-C , 24-H ) :   0.9717 B(  5-C , 27-H ) :   0.9746
B(  6-C ,  7-C ) :   1.0084 B(  6-C , 22-H ) :   0.9543 B(  6-C , 23-H ) :   0.9478
B(  7-C ,  8-C ) :   0.9535 B(  7-C , 10-N ) :   0.9724 B(  7-C , 18-H ) :   0.9512
B(  8-C ,  9-N ) :   1.2740 B(  8-C , 14-O ) :   1.9810 B(  9-N , 19-H ) :   0.9631
B(  9-N , 21-H ) :   0.9622 B( 10-N , 11-C ) :   1.1946 B( 10-N , 20-H ) :   0.9392
B( 11-C , 12-O ) :   1.9424 B( 11-C , 13-C ) :   1.0278 B( 13-C , 15-H ) :   0.9767
B( 13-C , 16-H ) :   0.9658 B( 13-C , 17-H ) :   0.9660

E(0)                                       ...   -683.431865568
E(0)                                       ...   -683.431865568
E(CORR)(strong-pairs)                      ...     -2.242248745
E(CORR)(weak-pairs)                        ...     -0.002255468
E(CORR)(corrected)                         ...     -2.244504213
E(TOT)                                     ...   -685.676369781
E(CCSD(T))                                 ...   -685.757934084
FINAL SINGLE POINT ENERGY      -685.757934084244

DIPOLE MOMENT
-------------
                                X             Y             Z
Electronic contribution:     -1.41659       2.07494      -1.08364
Nuclear contribution   :      0.63701      -1.56784       1.03647
                        -----------------------------------------
Total Dipole Moment    :     -0.77958       0.50710      -0.04717
                        -----------------------------------------
Magnitude (a.u.)       :      0.93119
Magnitude (Debye)      :      2.36690

Rotational constants in cm-1:     0.033762     0.011762     0.009594
Rotational constants in MHz :  1012.163239   352.605041   287.629296

                             ****ORCA TERMINATED NORMALLY****
TOTAL RUN TIME: 0 days 0 hours 17 minutes 35 seconds 364 msec
