                         Program Version 4.1.x  -  STABLE  -
|  1> ! RHF DLPNO-CCSD(T) cc-pVDZ RIJK cc-pVTZ/JK cc-pVDZ/C
|  2> ! KDIIS SOSCF TightSCF TightPNO
|  3>
|  4> %pal nprocs 4 end
|  5>
|  6> %maxcore 8000
|  7>
|  8> %scf maxiter 300
|  9>      shift shift 0.2 erroff 0.1 end
| 10> end
| 11>
| 12> * xyzfile 0 1 NAPA_g_plus.xyz
| 13>
| 14>
| 15>                          ****END OF INPUT****

CARTESIAN COORDINATES (ANGSTROEM)
---------------------------------
  C     -3.786680    0.631320   -0.794520
  C     -3.209040   -0.617060   -1.047870
  C     -2.097270   -1.045520   -0.319120
  C     -1.541230   -0.230390    0.681860
  C     -2.134020    1.018760    0.930290
  C     -3.246390    1.449710    0.199420
  C     -0.334240   -0.671850    1.492970
  C      1.039040   -0.539560    0.792480
  C      1.370960   -1.760410   -0.111710
  N      2.588240   -1.695410   -0.704880
  N      1.135120    0.736050    0.081300
  C      2.297890    1.406490   -0.130420
  O      3.397270    0.936670    0.189380
  C      2.180410    2.767190   -0.788070
  O      0.608200   -2.715270   -0.238470
  H      2.616890    3.514600   -0.119330
  H      1.151410    3.053050   -1.021470
  H      2.771360    2.765690   -1.708240
  H      1.820440   -0.523320    1.562440
  H      2.886560   -2.481100   -1.264580
  H      0.267840    1.135170   -0.254330
  H      3.228360   -0.932970   -0.496460
  H     -0.293440   -0.074570    2.409710
  H     -0.444080   -1.719780    1.783870
  H     -1.730830    1.654010    1.716210
  H     -1.645900   -2.011690   -0.519710
  H     -3.627750   -1.263210   -1.814420
  H     -3.691720    2.417220    0.413950
  H     -4.653090    0.959120   -1.361810

 Total Charge           Charge          ....    0
 Multiplicity           Mult            ....    1
 Number of Electrons    NEL             ....  110
 Basis Dimension        Dim             ....  280

ORBITAL ENERGIES
----------------

  NO   OCC          E(Eh)            E(eV)
   0   2.0000     -20.530706      -558.6689
   1   2.0000     -20.518925      -558.3483
   2   2.0000     -15.602872      -424.5757
   3   2.0000     -15.572831      -423.7583
   4   2.0000     -11.371911      -309.4454
   5   2.0000     -11.353354      -308.9405
   6   2.0000     -11.294708      -307.3446
   7   2.0000     -11.255445      -306.2762
   8   2.0000     -11.250561      -306.1433
   9   2.0000     -11.246901      -306.0437
  10   2.0000     -11.245806      -306.0139
  11   2.0000     -11.244519      -305.9789
  12   2.0000     -11.243030      -305.9384
  13   2.0000     -11.241503      -305.8969
  14   2.0000     -11.234759      -305.7133
  15   2.0000      -1.388952       -37.7953
  16   2.0000      -1.372599       -37.3503
  17   2.0000      -1.247697       -33.9516
  18   2.0000      -1.196999       -32.5720
  19   2.0000      -1.155763       -31.4499
  20   2.0000      -1.072438       -29.1825
  21   2.0000      -1.023896       -27.8616
  22   2.0000      -1.014945       -27.6180
  23   2.0000      -0.984584       -26.7919
  24   2.0000      -0.899821       -24.4854
  25   2.0000      -0.828977       -22.5576
  26   2.0000      -0.815237       -22.1837
  27   2.0000      -0.806053       -21.9338
  28   2.0000      -0.771970       -21.0064
  29   2.0000      -0.725031       -19.7291
  30   2.0000      -0.702640       -19.1198
  31   2.0000      -0.692017       -18.8307
  32   2.0000      -0.667566       -18.1654
  33   2.0000      -0.661038       -17.9877
  34   2.0000      -0.632965       -17.2238
  35   2.0000      -0.629463       -17.1286
  36   2.0000      -0.615814       -16.7571
  37   2.0000      -0.598050       -16.2738
  38   2.0000      -0.590606       -16.0712
  39   2.0000      -0.582985       -15.8638
  40   2.0000      -0.581680       -15.8283
  41   2.0000      -0.562810       -15.3149
  42   2.0000      -0.550211       -14.9720
  43   2.0000      -0.539366       -14.6769
  44   2.0000      -0.528548       -14.3825
  45   2.0000      -0.519937       -14.1482
  46   2.0000      -0.492311       -13.3965
  47   2.0000      -0.484871       -13.1940
  48   2.0000      -0.483287       -13.1509
  49   2.0000      -0.441708       -12.0195
  50   2.0000      -0.431628       -11.7452
  51   2.0000      -0.401029       -10.9126
  52   2.0000      -0.388424       -10.5696
  53   2.0000      -0.337922        -9.1953
  54   2.0000      -0.330768        -9.0007
  55   0.0000       0.126347         3.4381
  56   0.0000       0.127909         3.4806
  57   0.0000       0.162850         4.4314
  58   0.0000       0.173150         4.7116
  59   0.0000       0.188713         5.1351

MULLIKEN ATOMIC CHARGES
-----------------------
   0 C :   -0.026418
   1 C :   -0.006156
   2 C :    0.014090
   3 C :   -0.272006
   4 C :   -0.009170
   5 C :   -0.011660
   6 C :    0.161738
   7 C :   -0.004916
   8 C :    0.384888
   9 N :   -0.236548
  10 N :   -0.352169
  11 C :    0.314089
  12 O :   -0.472312
  13 C :   -0.005711
  14 O :   -0.431209
  15 H :    0.075720
  16 H :    0.040837
  17 H :    0.074391
  18 H :    0.073528
  19 H :    0.127987
  20 H :    0.146257
  21 H :    0.161290
  22 H :    0.031839
  23 H :    0.069454
  24 H :    0.012586
  25 H :    0.058310
  26 H :    0.029429
  27 H :    0.025742
  28 H :    0.026101
Sum of atomic charges:   -0.0000000

LOEWDIN ATOMIC CHARGES
----------------------
   0 C :   -0.029642
   1 C :   -0.022523
   2 C :   -0.013514
   3 C :   -0.042475
   4 C :   -0.040811
   5 C :   -0.030481
   6 C :   -0.003272
   7 C :   -0.009458
   8 C :   -0.031472
   9 N :    0.057674
  10 N :    0.070971
  11 C :   -0.019604
  12 O :   -0.205068
  13 C :   -0.049865
  14 O :   -0.184267
  15 H :    0.048487
  16 H :    0.027261
  17 H :    0.047388
  18 H :    0.039981
  19 H :    0.061914
  20 H :    0.059014
  21 H :    0.055651
  22 H :    0.028668
  23 H :    0.042778
  24 H :    0.022754
  25 H :    0.035265
  26 H :    0.029578
  27 H :    0.027523
  28 H :    0.027545

  Mayer bond orders larger than 0.1
B(  0-C ,  1-C ) :   1.4422 B(  0-C ,  5-C ) :   1.4636 B(  0-C , 28-H ) :   0.9775
B(  1-C ,  2-C ) :   1.4653 B(  1-C , 26-H ) :   0.9756 B(  2-C ,  3-C ) :   1.4448
B(  2-C , 25-H ) :   0.9575 B(  3-C ,  4-C ) :   1.4247 B(  3-C ,  6-C ) :   1.0533
B(  4-C ,  5-C ) :   1.4563 B(  4-C , 24-H ) :   0.9720 B(  5-C , 27-H ) :   0.9747
B(  6-C ,  7-C ) :   1.0510 B(  6-C , 22-H ) :   0.9529 B(  6-C , 23-H ) :   0.9453
B(  7-C ,  8-C ) :   0.9226 B(  7-C , 10-N ) :   0.9233 B(  7-C , 18-H ) :   0.9505
B(  8-C ,  9-N ) :   1.3140 B(  8-C , 14-O ) :   1.9542 B(  9-N , 19-H ) :   0.9655
B(  9-N , 21-H ) :   0.9334 B( 10-N , 11-C ) :   1.2199 B( 10-N , 20-H ) :   0.9487
B( 11-C , 12-O ) :   1.8678 B( 11-C , 13-C ) :   1.0286 B( 13-C , 15-H ) :   0.9638
B( 13-C , 16-H ) :   0.9767 B( 13-C , 17-H ) :   0.9651

E(0)                                       ...   -683.431013940
E(0)                                       ...   -683.431013940
E(CORR)(strong-pairs)                      ...     -2.244379829
E(CORR)(weak-pairs)                        ...     -0.002208864
E(CORR)(corrected)                         ...     -2.246588693
E(TOT)                                     ...   -685.677602633
E(CCSD(T))                                 ...   -685.759668200
FINAL SINGLE POINT ENERGY      -685.759668200490

DIPOLE MOMENT
-------------
                                X             Y             Z
Electronic contribution:      0.94626      -5.10034       0.39008
Nuclear contribution   :     -1.26104       6.46930      -0.67972
                        -----------------------------------------
Total Dipole Moment    :     -0.31478       1.36895      -0.28964
                        -----------------------------------------
Magnitude (a.u.)       :      1.43423
Magnitude (Debye)      :      3.64551

Rotational constants in cm-1:     0.029370     0.013742     0.010734
Rotational constants in MHz :   880.483387   411.976705   321.812033

                             ****ORCA TERMINATED NORMALLY****
TOTAL RUN TIME: 0 days 0 hours 22 minutes 33 seconds 748 msec
