                         Program Version 4.1.x  -  STABLE  -
|  1> ! RHF DLPNO-CCSD(T) cc-pVDZ RIJK cc-pVTZ/JK cc-pVDZ/C
|  2> ! KDIIS SOSCF TightSCF TightPNO
|  3>
|  4> %pal nprocs 4 end
|  5>
|  6> %maxcore 8000
|  7>
|  8> %scf maxiter 300
|  9>      shift shift 0.2 erroff 0.1 end
| 10> end
| 11>
| 12> * xyzfile 0 1 NAPA_g_.xyz
| 13>
| 14>
| 15>                          ****END OF INPUT****

CARTESIAN COORDINATES (ANGSTROEM)
---------------------------------
  C     -4.041310    0.427200    0.259490
  C     -3.569970    0.096830   -1.012270
  C     -2.326220   -0.526980   -1.158320
  C     -1.533170   -0.830250   -0.042600
  C     -2.024190   -0.499580    1.230700
  C     -3.263760    0.123820    1.382150
  C     -0.185280   -1.501520   -0.211380
  C      1.007280   -0.624610    0.203390
  C      2.345850   -1.378740   -0.023590
  N      3.405490   -0.821320    0.616980
  N      1.001550    0.647150   -0.526430
  C      1.549910    1.789160   -0.029790
  O      2.203210    1.798620    1.020210
  C      1.324080    3.053770   -0.833960
  O      2.418540   -2.392760   -0.710710
  H      0.792760    3.773960   -0.205130
  H      0.752560    2.892810   -1.751900
  H      2.294740    3.489580   -1.085710
  H      0.941290   -0.370710    1.267310
  H      4.322060   -1.207810    0.441030
  H      0.452660    0.700000   -1.372830
  H      3.310430    0.093320    1.051190
  H     -0.136280   -2.416810    0.387930
  H     -0.042610   -1.822390   -1.248140
  H     -1.433520   -0.735490    2.112850
  H     -1.975260   -0.796060   -2.152380
  H     -4.169120    0.317930   -1.891150
  H     -3.625330    0.369540    2.376650
  H     -5.007040    0.909820    0.377620

 Total Charge           Charge          ....    0
 Multiplicity           Mult            ....    1
 Number of Electrons    NEL             ....  110
 Basis Dimension        Dim             ....  280

ORBITAL ENERGIES
----------------

  NO   OCC          E(Eh)            E(eV)
   0   2.0000     -20.530661      -558.6677
   1   2.0000     -20.515432      -558.2533
   2   2.0000     -15.604199      -424.6118
   3   2.0000     -15.570737      -423.7013
   4   2.0000     -11.371471      -309.4335
   5   2.0000     -11.349759      -308.8426
   6   2.0000     -11.292497      -307.2845
   7   2.0000     -11.255158      -306.2684
   8   2.0000     -11.254875      -306.2607
   9   2.0000     -11.249102      -306.1036
  10   2.0000     -11.248649      -306.0913
  11   2.0000     -11.246383      -306.0296
  12   2.0000     -11.246245      -306.0259
  13   2.0000     -11.245330      -306.0010
  14   2.0000     -11.244935      -305.9902
  15   2.0000      -1.388688       -37.7881
  16   2.0000      -1.369176       -37.2572
  17   2.0000      -1.246987       -33.9323
  18   2.0000      -1.195092       -32.5201
  19   2.0000      -1.160578       -31.5809
  20   2.0000      -1.075607       -29.2688
  21   2.0000      -1.025071       -27.8936
  22   2.0000      -1.020252       -27.7625
  23   2.0000      -0.985241       -26.8098
  24   2.0000      -0.900348       -24.4997
  25   2.0000      -0.834331       -22.7033
  26   2.0000      -0.815326       -22.1861
  27   2.0000      -0.803679       -21.8692
  28   2.0000      -0.774117       -21.0648
  29   2.0000      -0.721074       -19.6214
  30   2.0000      -0.706393       -19.2219
  31   2.0000      -0.686653       -18.6848
  32   2.0000      -0.676422       -18.4064
  33   2.0000      -0.660780       -17.9807
  34   2.0000      -0.637283       -17.3414
  35   2.0000      -0.632201       -17.2031
  36   2.0000      -0.615752       -16.7555
  37   2.0000      -0.595746       -16.2111
  38   2.0000      -0.592012       -16.1095
  39   2.0000      -0.589756       -16.0481
  40   2.0000      -0.581535       -15.8244
  41   2.0000      -0.563995       -15.3471
  42   2.0000      -0.551678       -15.0119
  43   2.0000      -0.541015       -14.7218
  44   2.0000      -0.526711       -14.3325
  45   2.0000      -0.514653       -14.0044
  46   2.0000      -0.496078       -13.4990
  47   2.0000      -0.490716       -13.3531
  48   2.0000      -0.489251       -13.3132
  49   2.0000      -0.440055       -11.9745
  50   2.0000      -0.430927       -11.7261
  51   2.0000      -0.398627       -10.8472
  52   2.0000      -0.387773       -10.5518
  53   2.0000      -0.342519        -9.3204
  54   2.0000      -0.333749        -9.0818
  55   0.0000       0.119895         3.2625
  56   0.0000       0.127271         3.4632
  57   0.0000       0.161224         4.3871
  58   0.0000       0.173621         4.7245
  59   0.0000       0.180876         4.9219

MULLIKEN ATOMIC CHARGES
-----------------------
   0 C :   -0.029900
   1 C :   -0.006173
   2 C :   -0.017903
   3 C :   -0.200672
   4 C :    0.008018
   5 C :   -0.005971
   6 C :    0.139492
   7 C :   -0.023096
   8 C :    0.386503
   9 N :   -0.241461
  10 N :   -0.340729
  11 C :    0.321919
  12 O :   -0.470035
  13 C :   -0.005107
  14 O :   -0.421398
  15 H :    0.078314
  16 H :    0.037727
  17 H :    0.074049
  18 H :    0.065790
  19 H :    0.126457
  20 H :    0.131004
  21 H :    0.161160
  22 H :    0.063812
  23 H :    0.050521
  24 H :    0.018836
  25 H :    0.014226
  26 H :    0.027715
  27 H :    0.029832
  28 H :    0.027072
Sum of atomic charges:   -0.0000000

LOEWDIN ATOMIC CHARGES
----------------------
   0 C :   -0.031843
   1 C :   -0.021812
   2 C :   -0.039502
   3 C :   -0.030420
   4 C :   -0.025767
   5 C :   -0.018013
   6 C :   -0.007898
   7 C :   -0.009128
   8 C :   -0.034930
   9 N :    0.053828
  10 N :    0.072706
  11 C :   -0.015979
  12 O :   -0.202646
  13 C :   -0.049472
  14 O :   -0.180473
  15 H :    0.049646
  16 H :    0.026133
  17 H :    0.047201
  18 H :    0.029703
  19 H :    0.060975
  20 H :    0.059196
  21 H :    0.056463
  22 H :    0.042649
  23 H :    0.033118
  24 H :    0.026240
  25 H :    0.023390
  26 H :    0.028773
  27 H :    0.029817
  28 H :    0.028045

  Mayer bond orders larger than 0.1
B(  0-C ,  1-C ) :   1.4676 B(  0-C ,  5-C ) :   1.4422 B(  0-C , 28-H ) :   0.9771
B(  1-C ,  2-C ) :   1.4543 B(  1-C , 26-H ) :   0.9739 B(  2-C ,  3-C ) :   1.4475
B(  2-C , 25-H ) :   0.9715 B(  3-C ,  4-C ) :   1.4154 B(  3-C ,  6-C ) :   1.0551
B(  4-C ,  5-C ) :   1.4838 B(  4-C , 24-H ) :   0.9712 B(  5-C , 27-H ) :   0.9742
B(  6-C ,  7-C ) :   1.0366 B(  6-C , 22-H ) :   0.9471 B(  6-C , 23-H ) :   0.9512
B(  7-C ,  8-C ) :   0.9352 B(  7-C , 10-N ) :   0.9221 B(  7-C , 18-H ) :   0.9482
B(  8-C ,  9-N ) :   1.3020 B(  8-C , 14-O ) :   1.9965 B(  9-N , 19-H ) :   0.9659
B(  9-N , 21-H ) :   0.9359 B( 10-N , 11-C ) :   1.2090 B( 10-N , 20-H ) :   0.9590
B( 11-C , 12-O ) :   1.8757 B( 11-C , 13-C ) :   1.0282 B( 13-C , 15-H ) :   0.9637
B( 13-C , 16-H ) :   0.9770 B( 13-C , 17-H ) :   0.9653

E(0)                                       ...   -683.431084001
E(0)                                       ...   -683.431084001
E(CORR)(strong-pairs)                      ...     -2.243069721
E(CORR)(weak-pairs)                        ...     -0.002338281
E(CORR)(corrected)                         ...     -2.245408002
E(TOT)                                     ...   -685.676492003
E(CCSD(T))                                 ...   -685.758215046
FINAL SINGLE POINT ENERGY      -685.758215045724

DIPOLE MOMENT
-------------
                                X             Y             Z
Electronic contribution:      2.60871      -3.99275       1.25855
Nuclear contribution   :     -3.42962       5.19593      -1.69007
                        -----------------------------------------
Total Dipole Moment    :     -0.82091       1.20318      -0.43152
                        -----------------------------------------
Magnitude (a.u.)       :      1.51913
Magnitude (Debye)      :      3.86132

Rotational constants in cm-1:     0.029442     0.012595     0.010373
Rotational constants in MHz :   882.658450   377.599266   310.975608

                             ****ORCA TERMINATED NORMALLY****
TOTAL RUN TIME: 0 days 0 hours 16 minutes 46 seconds 248 msec
