                         Program Version 4.1.x  -  STABLE  -
|  1> ! RHF DLPNO-CCSD(T) cc-pVDZ RIJK cc-pVTZ/JK cc-pVDZ/C
|  2> ! KDIIS SOSCF TightSCF TightPNO
|  3>
|  4> %pal nprocs 4 end
|  5>
|  6> %maxcore 8000
|  7>
|  8> %scf maxiter 300
|  9>      shift shift 0.2 erroff 0.1 end
| 10> end
| 11>
| 12> * xyzfile 0 1 P_Me_phosphorinane_eq.xyz
| 13>
| 14>
| 15>                          ****END OF INPUT****

CARTESIAN COORDINATES (ANGSTROEM)
---------------------------------
  C      2.573490   -0.000000    0.441590
  P      1.032440   -0.000010   -0.610410
  C      0.069290    1.398100    0.185260
  C     -1.430010    1.289880   -0.151030
  C     -2.076810    0.000010    0.384630
  C     -1.430030   -1.289870   -0.151020
  C      0.069280   -1.398100    0.185260
  H      0.472920   -2.350540   -0.177910
  H      0.209350   -1.378960    1.276060
  H     -1.957680   -2.158700    0.263520
  H     -1.564550   -1.338500   -1.240640
  H     -2.016810    0.000010    1.483060
  H     -3.144990    0.000000    0.133640
  H     -1.957650    2.158710    0.263500
  H     -1.564540    1.338530   -1.240650
  H      0.209340    1.378940    1.276070
  H      0.472980    2.350530   -0.177890
  H      2.350730    0.000040    1.515460
  H      3.176460   -0.883310    0.206920
  H      3.176500    0.883260    0.206870

 Total Charge           Charge          ....    0
 Multiplicity           Mult            ....    1
 Number of Electrons    NEL             ....   64
 Basis Dimension        Dim             ....  167

ORBITAL ENERGIES
----------------

  NO   OCC          E(Eh)            E(eV)
   0   2.0000     -79.926163     -2174.9015
   1   2.0000     -11.228705      -305.5486
   2   2.0000     -11.228673      -305.5477
   3   2.0000     -11.226176      -305.4798
   4   2.0000     -11.226170      -305.4796
   5   2.0000     -11.226056      -305.4765
   6   2.0000     -11.225207      -305.4534
   7   2.0000      -7.467625      -203.2044
   8   2.0000      -5.361707      -145.8995
   9   2.0000      -5.361511      -145.8941
  10   2.0000      -5.359533      -145.8403
  11   2.0000      -1.093801       -29.7638
  12   2.0000      -1.003875       -27.3168
  13   2.0000      -0.986204       -26.8360
  14   2.0000      -0.920615       -25.0512
  15   2.0000      -0.827749       -22.5242
  16   2.0000      -0.782567       -21.2947
  17   2.0000      -0.711904       -19.3719
  18   2.0000      -0.630254       -17.1501
  19   2.0000      -0.597589       -16.2612
  20   2.0000      -0.596517       -16.2320
  21   2.0000      -0.577848       -15.7240
  22   2.0000      -0.562777       -15.3140
  23   2.0000      -0.540884       -14.7182
  24   2.0000      -0.534822       -14.5533
  25   2.0000      -0.495609       -13.4862
  26   2.0000      -0.487470       -13.2647
  27   2.0000      -0.480938       -13.0870
  28   2.0000      -0.461959       -12.5705
  29   2.0000      -0.422715       -11.5027
  30   2.0000      -0.404831       -11.0160
  31   2.0000      -0.323732        -8.8092
  32   0.0000       0.173259         4.7146
  33   0.0000       0.180485         4.9112
  34   0.0000       0.194294         5.2870
  35   0.0000       0.205374         5.5885
  36   0.0000       0.227184         6.1820

MULLIKEN ATOMIC CHARGES
-----------------------
   0 C :   -0.228544
   1 P :    0.248039
   2 C :   -0.204961
   3 C :   -0.039330
   4 C :   -0.046189
   5 C :   -0.039337
   6 C :   -0.204956
   7 H :    0.048970
   8 H :    0.039343
   9 H :    0.029368
  10 H :    0.035297
  11 H :    0.022508
  12 H :    0.027075
  13 H :    0.029366
  14 H :    0.035296
  15 H :    0.039344
  16 H :    0.048971
  17 H :    0.046743
  18 H :    0.056498
  19 H :    0.056498
Sum of atomic charges:    0.0000000

LOEWDIN ATOMIC CHARGES
----------------------
   0 C :   -0.193115
   1 P :    0.399549
   2 C :   -0.157535
   3 C :   -0.043297
   4 C :   -0.035406
   5 C :   -0.043295
   6 C :   -0.157536
   7 H :    0.017775
   8 H :    0.008654
   9 H :    0.021360
  10 H :    0.018752
  11 H :    0.015816
  12 H :    0.021678
  13 H :    0.021359
  14 H :    0.018753
  15 H :    0.008655
  16 H :    0.017775
  17 H :    0.013193
  18 H :    0.023432
  19 H :    0.023430

  Mayer bond orders larger than 0.1
B(  0-C ,  1-P ) :   1.0215 B(  0-C , 17-H ) :   0.9737 B(  0-C , 18-H ) :   0.9785
B(  0-C , 19-H ) :   0.9785 B(  1-P ,  2-C ) :   0.9884 B(  1-P ,  6-C ) :   0.9884
B(  2-C ,  3-C ) :   1.0403 B(  2-C , 15-H ) :   0.9599 B(  2-C , 16-H ) :   0.9698
B(  3-C ,  4-C ) :   1.0429 B(  3-C , 13-H ) :   0.9707 B(  3-C , 14-H ) :   0.9635
B(  4-C ,  5-C ) :   1.0429 B(  4-C , 11-H ) :   0.9648 B(  4-C , 12-H ) :   0.9728
B(  5-C ,  6-C ) :   1.0403 B(  5-C ,  9-H ) :   0.9707 B(  5-C , 10-H ) :   0.9635
B(  6-C ,  7-H ) :   0.9698 B(  6-C ,  8-H ) :   0.9599

E(0)                                       ...   -575.536501454
E(0)                                       ...   -575.536501454
E(CORR)(strong-pairs)                      ...     -1.070012238
E(CORR)(weak-pairs)                        ...     -0.000468610
E(CORR)(corrected)                         ...     -1.070480848
E(TOT)                                     ...   -576.606982302
E(CCSD(T))                                 ...   -576.640924682
FINAL SINGLE POINT ENERGY      -576.640924681608

DIPOLE MOMENT
-------------
                                X             Y             Z
Electronic contribution:      3.10534      -0.00003      -4.04647
Nuclear contribution   :     -3.23010       0.00002       4.52181
                        -----------------------------------------
Total Dipole Moment    :     -0.12476      -0.00000       0.47534
                        -----------------------------------------
Magnitude (a.u.)       :      0.49144
Magnitude (Debye)      :      1.24915

Rotational constants in cm-1:     0.116695     0.057183     0.043981
Rotational constants in MHz :  3498.418166  1714.296728  1318.526348

                             ****ORCA TERMINATED NORMALLY****
TOTAL RUN TIME: 0 days 0 hours 2 minutes 33 seconds 215 msec
