                         Program Version 4.1.x  -  STABLE  -
|  1> ! RHF DLPNO-CCSD(T) cc-pVDZ RIJK cc-pVTZ/JK cc-pVDZ/C
|  2> ! KDIIS SOSCF TightSCF TightPNO
|  3>
|  4> %pal nprocs 4 end
|  5>
|  6> %maxcore 8000
|  7>
|  8> %scf maxiter 300
|  9>      shift shift 0.2 erroff 0.1 end
| 10> end
| 11>
| 12> * xyzfile 0 1 P_Me_phosphorinane_ax.xyz
| 13>
| 14>
| 15>                          ****END OF INPUT****

CARTESIAN COORDINATES (ANGSTROEM)
---------------------------------
  C      1.863310   -0.000020    1.151780
  P      1.244700   -0.000030   -0.613800
  C      0.020930   -1.425630   -0.576410
  C     -1.178700   -1.284460    0.375220
  C     -1.990550    0.000040    0.142720
  C     -1.178630    1.284500    0.375200
  C      0.021030    1.425610   -0.576420
  H      0.590030    2.337170   -0.354660
  H     -0.338410    1.539660   -1.608230
  H     -1.834820    2.157220    0.254000
  H     -0.834010    1.309080    1.417790
  H     -2.380930    0.000050   -0.886220
  H     -2.866270    0.000090    0.803930
  H     -1.834950   -2.157140    0.254010
  H     -0.834080   -1.309070    1.417800
  H     -0.338530   -1.539650   -1.608220
  H      0.589900   -2.337210   -0.354670
  H      1.078940    0.000020    1.914690
  H      2.494160   -0.882350    1.302100
  H      2.494220    0.882280    1.302050

 Total Charge           Charge          ....    0
 Multiplicity           Mult            ....    1
 Number of Electrons    NEL             ....   64
 Basis Dimension        Dim             ....  167

ORBITAL ENERGIES
----------------

  NO   OCC          E(Eh)            E(eV)
   0   2.0000     -79.927400     -2174.9351
   1   2.0000     -11.228493      -305.5428
   2   2.0000     -11.228455      -305.5418
   3   2.0000     -11.227285      -305.5100
   4   2.0000     -11.227284      -305.5099
   5   2.0000     -11.225532      -305.4623
   6   2.0000     -11.224591      -305.4366
   7   2.0000      -7.468262      -203.2217
   8   2.0000      -5.362285      -145.9152
   9   2.0000      -5.362181      -145.9123
  10   2.0000      -5.360163      -145.8574
  11   2.0000      -1.093283       -29.7498
  12   2.0000      -1.004992       -27.3472
  13   2.0000      -0.982627       -26.7386
  14   2.0000      -0.923068       -25.1180
  15   2.0000      -0.830934       -22.6109
  16   2.0000      -0.790597       -21.5132
  17   2.0000      -0.703428       -19.1413
  18   2.0000      -0.629474       -17.1289
  19   2.0000      -0.604145       -16.4396
  20   2.0000      -0.601935       -16.3795
  21   2.0000      -0.563183       -15.3250
  22   2.0000      -0.554127       -15.0785
  23   2.0000      -0.553838       -15.0707
  24   2.0000      -0.532542       -14.4912
  25   2.0000      -0.504140       -13.7184
  26   2.0000      -0.480515       -13.0755
  27   2.0000      -0.474151       -12.9023
  28   2.0000      -0.466919       -12.7055
  29   2.0000      -0.432355       -11.7650
  30   2.0000      -0.405016       -11.0211
  31   2.0000      -0.320212        -8.7134
  32   0.0000       0.168563         4.5868
  33   0.0000       0.186576         5.0770
  34   0.0000       0.202245         5.5034
  35   0.0000       0.212780         5.7900
  36   0.0000       0.215904         5.8751

MULLIKEN ATOMIC CHARGES
-----------------------
   0 C :   -0.230126
   1 P :    0.236703
   2 C :   -0.209311
   3 C :   -0.031011
   4 C :   -0.045483
   5 C :   -0.031019
   6 C :   -0.209303
   7 H :    0.049329
   8 H :    0.051474
   9 H :    0.028331
  10 H :    0.026857
  11 H :    0.021320
  12 H :    0.025427
  13 H :    0.028332
  14 H :    0.026857
  15 H :    0.051475
  16 H :    0.049329
  17 H :    0.048469
  18 H :    0.056175
  19 H :    0.056176
Sum of atomic charges:    0.0000000

LOEWDIN ATOMIC CHARGES
----------------------
   0 C :   -0.197036
   1 P :    0.402179
   2 C :   -0.163968
   3 C :   -0.045322
   4 C :   -0.034181
   5 C :   -0.045321
   6 C :   -0.163972
   7 H :    0.020041
   8 H :    0.019168
   9 H :    0.021171
  10 H :    0.016032
  11 H :    0.015746
  12 H :    0.021074
  13 H :    0.021172
  14 H :    0.016032
  15 H :    0.019168
  16 H :    0.020039
  17 H :    0.010704
  18 H :    0.023637
  19 H :    0.023638

  Mayer bond orders larger than 0.1
B(  0-C ,  1-P ) :   1.0050 B(  0-C , 17-H ) :   0.9750 B(  0-C , 18-H ) :   0.9786
B(  0-C , 19-H ) :   0.9786 B(  1-P ,  2-C ) :   0.9972 B(  1-P ,  6-C ) :   0.9972
B(  2-C ,  3-C ) :   1.0272 B(  2-C , 15-H ) :   0.9642 B(  2-C , 16-H ) :   0.9692
B(  3-C ,  4-C ) :   1.0435 B(  3-C , 13-H ) :   0.9703 B(  3-C , 14-H ) :   0.9661
B(  4-C ,  5-C ) :   1.0435 B(  4-C , 11-H ) :   0.9655 B(  4-C , 12-H ) :   0.9729
B(  5-C ,  6-C ) :   1.0272 B(  5-C ,  9-H ) :   0.9703 B(  5-C , 10-H ) :   0.9661
B(  6-C ,  7-H ) :   0.9692 B(  6-C ,  8-H ) :   0.9642

E(0)                                       ...   -575.535519979
E(0)                                       ...   -575.535519979
E(CORR)(strong-pairs)                      ...     -1.070398610
E(CORR)(weak-pairs)                        ...     -0.000429088
E(CORR)(corrected)                         ...     -1.070827697
E(TOT)                                     ...   -576.606347677
E(CCSD(T))                                 ...   -576.640344798
FINAL SINGLE POINT ENERGY      -576.640344797536

DIPOLE MOMENT
-------------
                                X             Y             Z
Electronic contribution:      4.96528      -0.00017      -4.22125
Nuclear contribution   :     -5.38164       0.00020       4.59384
                        -----------------------------------------
Total Dipole Moment    :     -0.41636       0.00002       0.37259
                        -----------------------------------------
Magnitude (a.u.)       :      0.55873
Magnitude (Debye)      :      1.42019

Rotational constants in cm-1:     0.095976     0.063730     0.051683
Rotational constants in MHz :  2877.286548  1910.581981  1549.404183

                             ****ORCA TERMINATED NORMALLY****
TOTAL RUN TIME: 0 days 0 hours 3 minutes 4 seconds 136 msec
