                         Program Version 4.1.x  -  STABLE  -
|  1> ! RHF DLPNO-CCSD(T) cc-pVDZ RIJK cc-pVTZ/JK cc-pVDZ/C
|  2> ! KDIIS SOSCF TightSCF TightPNO
|  3>
|  4> %pal nprocs 8 end
|  5>
|  6> %maxcore 8000
|  7>
|  8> %scf maxiter 300
|  9>      shift shift 0.2 erroff 0.1 end
| 10> end
| 11>
| 12> * xyzfile 0 1 Ph3SiO_cycl_eq.xyz
| 13>
| 14>
| 15>                          ****END OF INPUT****

CARTESIAN COORDINATES (ANGSTROEM)
---------------------------------
  C     -1.621380    4.415070    1.214930
  C     -0.936170    4.173540    0.020710
  C     -0.594260    2.867040   -0.337110
  C     -0.920920    1.771870    0.486510
  C     -1.610490    2.039940    1.684580
  C     -1.960160    3.344460    2.046350
  Si    -0.514750    0.014990   -0.078700
  C     -0.229970   -1.085750    1.434770
  C      0.465930   -0.620050    2.568400
  C      0.728170   -1.456570    3.656730
  C      0.292520   -2.784560    3.637950
  C     -0.404200   -3.268270    2.527410
  C     -0.660080   -2.427060    1.440900
  O      0.819480    0.035930   -1.085070
  C      2.198420    0.173270   -0.708550
  C      2.873020    1.170640   -1.655500
  C      4.378890    1.295260   -1.367520
  C      5.078360   -0.072370   -1.409570
  C      4.397060   -1.074440   -0.464380
  C      2.891630   -1.193030   -0.757340
  C     -1.886940   -0.684310   -1.161750
  C     -3.239840   -0.557160   -0.794080
  C     -4.259220   -1.094440   -1.583780
  C     -3.943880   -1.769500   -2.766930
  C     -2.607690   -1.901950   -3.153390
  C     -1.591420   -1.364300   -2.357720
  H      4.838200    1.983190   -2.087570
  H      4.524030    1.744950   -0.374250
  H      6.138730    0.035350   -1.149880
  H      5.044430   -0.463980   -2.436620
  H      4.541790   -0.747630    0.575800
  H      4.869690   -2.060660   -0.545960
  H      2.714170    0.821670   -2.685100
  H      2.381580    2.146360   -1.569370
  H      2.410450   -1.873540   -0.046360
  H      2.738170   -1.613880   -1.760670
  H      2.266530    0.566220    0.318540
  H     -3.507820   -0.026200    0.116740
  H     -5.296510   -0.982470   -1.280030
  H     -4.735060   -2.185720   -3.384610
  H     -2.356180   -2.420950   -4.074510
  H     -0.555790   -1.462770   -2.669620
  H      0.804350    0.412610    2.609680
  H     -1.206440   -2.820040    0.587380
  H     -0.750010   -4.298240    2.507580
  H      1.267040   -1.071740    4.518380
  H      0.491700   -3.436280    4.484220
  H     -1.875990    1.222910    2.350970
  H     -0.068030    2.694400   -1.272300
  H     -0.670660    5.001180   -0.631590
  H     -2.492450    3.523940    2.976610
  H     -1.889480    5.430030    1.495210

 Total Charge           Charge          ....    0
 Multiplicity           Mult            ....    1
 Number of Electrons    NEL             ....  192
 Basis Dimension        Dim             ....  498

ORBITAL ENERGIES
----------------

  NO   OCC          E(Eh)            E(eV)
   0   2.0000     -68.801468     -1872.1831
   1   2.0000     -20.538348      -558.8769
   2   2.0000     -11.282059      -307.0004
   3   2.0000     -11.244725      -305.9845
   4   2.0000     -11.243975      -305.9641
   5   2.0000     -11.242888      -305.9345
   6   2.0000     -11.241859      -305.9065
   7   2.0000     -11.241811      -305.9052
   8   2.0000     -11.240376      -305.8662
   9   2.0000     -11.239815      -305.8509
  10   2.0000     -11.238680      -305.8200
  11   2.0000     -11.238421      -305.8130
  12   2.0000     -11.238286      -305.8093
  13   2.0000     -11.237688      -305.7930
  14   2.0000     -11.237629      -305.7914
  15   2.0000     -11.234667      -305.7108
  16   2.0000     -11.233548      -305.6804
  17   2.0000     -11.232628      -305.6554
  18   2.0000     -11.223956      -305.4194
  19   2.0000     -11.223618      -305.4102
  20   2.0000     -11.222636      -305.3834
  21   2.0000     -11.222480      -305.3792
  22   2.0000     -11.221715      -305.3584
  23   2.0000     -11.218824      -305.2797
  24   2.0000     -11.217872      -305.2538
  25   2.0000     -11.216597      -305.2191
  26   2.0000      -6.143745      -167.1798
  27   2.0000      -4.251331      -115.6846
  28   2.0000      -4.250045      -115.6496
  29   2.0000      -4.249944      -115.6469
  30   2.0000      -1.335710       -36.3465
  31   2.0000      -1.146191       -31.1894
  32   2.0000      -1.142990       -31.1023
  33   2.0000      -1.138763       -30.9873
  34   2.0000      -1.106491       -30.1091
  35   2.0000      -1.018129       -27.7047
  36   2.0000      -1.012415       -27.5492
  37   2.0000      -1.010162       -27.4879
  38   2.0000      -1.005679       -27.3659
  39   2.0000      -1.004275       -27.3277
  40   2.0000      -1.001649       -27.2563
  41   2.0000      -1.001235       -27.2450
  42   2.0000      -0.987573       -26.8732
  43   2.0000      -0.838236       -22.8096
  44   2.0000      -0.833728       -22.6869
  45   2.0000      -0.824573       -22.4378
  46   2.0000      -0.820132       -22.3169
  47   2.0000      -0.817875       -22.2555
  48   2.0000      -0.812493       -22.1090
  49   2.0000      -0.809732       -22.0339
  50   2.0000      -0.805810       -21.9272
  51   2.0000      -0.755552       -20.5596
  52   2.0000      -0.726349       -19.7650
  53   2.0000      -0.694435       -18.8965
  54   2.0000      -0.692689       -18.8490
  55   2.0000      -0.678101       -18.4521
  56   2.0000      -0.646488       -17.5918
  57   2.0000      -0.636728       -17.3262
  58   2.0000      -0.627477       -17.0745
  59   2.0000      -0.624229       -16.9861
  60   2.0000      -0.616594       -16.7784
  61   2.0000      -0.614105       -16.7106
  62   2.0000      -0.610785       -16.6203
  63   2.0000      -0.606559       -16.5053
  64   2.0000      -0.601245       -16.3607
  65   2.0000      -0.590548       -16.0696
  66   2.0000      -0.582532       -15.8515
  67   2.0000      -0.580314       -15.7911
  68   2.0000      -0.576510       -15.6876
  69   2.0000      -0.569579       -15.4990
  70   2.0000      -0.560786       -15.2597
  71   2.0000      -0.546287       -14.8652
  72   2.0000      -0.541887       -14.7455
  73   2.0000      -0.528448       -14.3798
  74   2.0000      -0.524264       -14.2659
  75   2.0000      -0.499481       -13.5916
  76   2.0000      -0.497492       -13.5375
  77   2.0000      -0.494664       -13.4605
  78   2.0000      -0.492102       -13.3908
  79   2.0000      -0.486875       -13.2485
  80   2.0000      -0.485622       -13.2144
  81   2.0000      -0.481859       -13.1120
  82   2.0000      -0.481085       -13.0910
  83   2.0000      -0.470908       -12.8141
  84   2.0000      -0.461953       -12.5704
  85   2.0000      -0.456307       -12.4168
  86   2.0000      -0.433907       -11.8072
  87   2.0000      -0.432176       -11.7601
  88   2.0000      -0.423687       -11.5291
  89   2.0000      -0.402382       -10.9494
  90   2.0000      -0.339591        -9.2407
  91   2.0000      -0.335302        -9.1240
  92   2.0000      -0.333441        -9.0734
  93   2.0000      -0.330665        -8.9978
  94   2.0000      -0.326822        -8.8933
  95   2.0000      -0.321887        -8.7590
  96   0.0000       0.109959         2.9921
  97   0.0000       0.111876         3.0443
  98   0.0000       0.125960         3.4275
  99   0.0000       0.128473         3.4959
 100   0.0000       0.139559         3.7976

MULLIKEN ATOMIC CHARGES
-----------------------
   0 C :   -0.013508
   1 C :   -0.017331
   2 C :   -0.010966
   3 C :   -0.342951
   4 C :   -0.017545
   5 C :   -0.017949
   6 Si:    1.212521
   7 C :   -0.391840
   8 C :   -0.007332
   9 C :   -0.019592
  10 C :   -0.012584
  11 C :   -0.019143
  12 C :    0.014055
  13 O :   -0.670247
  14 C :    0.143625
  15 C :    0.005386
  16 C :   -0.051043
  17 C :   -0.040793
  18 C :   -0.048777
  19 C :   -0.004117
  20 C :   -0.331645
  21 C :   -0.006005
  22 C :   -0.021732
  23 C :   -0.013578
  24 C :   -0.017361
  25 C :    0.007604
  26 H :    0.026279
  27 H :    0.023601
  28 H :    0.023485
  29 H :    0.024734
  30 H :    0.024383
  31 H :    0.026717
  32 H :    0.028957
  33 H :    0.028448
  34 H :    0.040701
  35 H :    0.027367
  36 H :    0.012116
  37 H :    0.021293
  38 H :    0.022426
  39 H :    0.025760
  40 H :    0.022459
  41 H :    0.032899
  42 H :    0.029391
  43 H :    0.036000
  44 H :    0.025581
  45 H :    0.024218
  46 H :    0.028250
  47 H :    0.028483
  48 H :    0.033552
  49 H :    0.024049
  50 H :    0.024110
  51 H :    0.027589
Sum of atomic charges:   -0.0000000

LOEWDIN ATOMIC CHARGES
----------------------
   0 C :   -0.016221
   1 C :   -0.031742
   2 C :   -0.014996
   3 C :   -0.152075
   4 C :   -0.024332
   5 C :   -0.033462
   6 Si:    0.529601
   7 C :   -0.157162
   8 C :   -0.022308
   9 C :   -0.034613
  10 C :   -0.015013
  11 C :   -0.032464
  12 C :   -0.014655
  13 O :   -0.194499
  14 C :    0.022246
  15 C :   -0.027460
  16 C :   -0.033277
  17 C :   -0.033812
  18 C :   -0.032842
  19 C :   -0.029213
  20 C :   -0.147268
  21 C :   -0.018953
  22 C :   -0.034086
  23 C :   -0.017763
  24 C :   -0.034949
  25 C :   -0.014403
  26 H :    0.021235
  27 H :    0.016257
  28 H :    0.019477
  29 H :    0.016796
  30 H :    0.016563
  31 H :    0.021518
  32 H :    0.020122
  33 H :    0.019617
  34 H :    0.024411
  35 H :    0.018594
  36 H :    0.006660
  37 H :    0.026445
  38 H :    0.026506
  39 H :    0.027292
  40 H :    0.026168
  41 H :    0.029968
  42 H :    0.025665
  43 H :    0.030888
  44 H :    0.027809
  45 H :    0.027125
  46 H :    0.028443
  47 H :    0.026455
  48 H :    0.029211
  49 H :    0.027294
  50 H :    0.027047
  51 H :    0.028156

  Mayer bond orders larger than 0.1
B(  0-C ,  1-C ) :   1.4488 B(  0-C ,  5-C ) :   1.4546 B(  0-C , 51-H ) :   0.9760
B(  1-C ,  2-C ) :   1.4679 B(  1-C , 49-H ) :   0.9753 B(  2-C ,  3-C ) :   1.4309
B(  2-C , 48-H ) :   0.9687 B(  3-C ,  4-C ) :   1.4208 B(  3-C ,  6-Si) :   0.9178
B(  4-C ,  5-C ) :   1.4648 B(  4-C , 47-H ) :   0.9708 B(  5-C , 50-H ) :   0.9751
B(  6-Si,  7-C ) :   0.9127 B(  6-Si, 13-O ) :   0.9350 B(  6-Si, 20-C ) :   0.9362
B(  7-C ,  8-C ) :   1.4185 B(  7-C , 12-C ) :   1.4277 B(  8-C ,  9-C ) :   1.4725
B(  8-C , 42-H ) :   0.9688 B(  9-C , 10-C ) :   1.4486 B(  9-C , 45-H ) :   0.9750
B( 10-C , 11-C ) :   1.4544 B( 10-C , 46-H ) :   0.9760 B( 11-C , 12-C ) :   1.4658
B( 11-C , 44-H ) :   0.9756 B( 12-C , 43-H ) :   0.9711 B( 13-O , 14-C ) :   0.8766
B( 14-C , 15-C ) :   1.0435 B( 14-C , 19-C ) :   1.0372 B( 14-C , 36-H ) :   0.9485
B( 15-C , 16-C ) :   1.0393 B( 15-C , 32-H ) :   0.9598 B( 15-C , 33-H ) :   0.9659
B( 16-C , 17-C ) :   1.0428 B( 16-C , 26-H ) :   0.9712 B( 16-C , 27-H ) :   0.9635
B( 17-C , 18-C ) :   1.0431 B( 17-C , 28-H ) :   0.9723 B( 17-C , 29-H ) :   0.9644
B( 18-C , 19-C ) :   1.0409 B( 18-C , 30-H ) :   0.9634 B( 18-C , 31-H ) :   0.9709
B( 19-C , 34-H ) :   0.9668 B( 19-C , 35-H ) :   0.9590 B( 20-C , 21-C ) :   1.4248
B( 20-C , 25-C ) :   1.4283 B( 21-C , 22-C ) :   1.4768 B( 21-C , 37-H ) :   0.9690
B( 22-C , 23-C ) :   1.4477 B( 22-C , 38-H ) :   0.9750 B( 23-C , 24-C ) :   1.4560
B( 23-C , 39-H ) :   0.9761 B( 24-C , 25-C ) :   1.4543 B( 24-C , 40-H ) :   0.9760
B( 25-C , 41-H ) :   0.9708

E(0)                                       ...  -1287.929362481
E(0)                                       ...  -1287.929362481
E(CORR)(strong-pairs)                      ...     -3.627823613
E(CORR)(weak-pairs)                        ...     -0.005747757
E(CORR)(corrected)                         ...     -3.633571370
E(TOT)                                     ...  -1291.562933851
E(CCSD(T))                                 ...  -1291.707692754
FINAL SINGLE POINT ENERGY     -1291.707692753832

DIPOLE MOMENT
-------------
                                X             Y             Z
Electronic contribution:    -19.54998      -0.10967       3.89638
Nuclear contribution   :     19.78213       0.11904      -3.45916
                        -----------------------------------------
Total Dipole Moment    :      0.23215       0.00937       0.43722
                        -----------------------------------------
Magnitude (a.u.)       :      0.49512
Magnitude (Debye)      :      1.25848

Rotational constants in cm-1:     0.006332     0.005003     0.004675
Rotational constants in MHz :   189.827667   149.993097   140.138534

                             ****ORCA TERMINATED NORMALLY****
TOTAL RUN TIME: 0 days 0 hours 48 minutes 0 seconds 275 msec
