                         Program Version 4.1.x  -  STABLE  -
|  1> ! RHF DLPNO-CCSD(T) cc-pVDZ RIJK cc-pVTZ/JK cc-pVDZ/C
|  2> ! KDIIS SOSCF TightSCF TightPNO
|  3>
|  4> %pal nprocs 8 end
|  5>
|  6> %maxcore 8000
|  7>
|  8> %scf maxiter 300
|  9>      shift shift 0.2 erroff 0.1 end
| 10> end
| 11>
| 12> * xyzfile 0 1 Ph3SiO_cycl_ax.xyz
| 13>
| 14>
| 15>                          ****END OF INPUT****

CARTESIAN COORDINATES (ANGSTROEM)
---------------------------------
  C      3.186040    3.738180   -0.486770
  C      1.964310    3.858490    0.180980
  C      1.129030    2.746440    0.315910
  C      1.485230    1.492240   -0.215400
  C      2.721040    1.395680   -0.883910
  C      3.564500    2.502130   -1.017460
  Si     0.375150   -0.012790    0.063120
  C      0.502250   -1.171720   -1.427880
  C      0.655640   -0.678800   -2.738820
  C      0.671760   -1.536280   -3.842430
  C      0.538890   -2.915090   -3.657780
  C      0.388870   -3.428720   -2.366610
  C      0.369780   -2.565140   -1.268180
  O     -1.199030    0.485360    0.330670
  C     -2.104270    1.042430   -0.643590
  C     -3.058590   -0.048640   -1.155600
  C     -4.008440   -0.553240   -0.057630
  C     -4.785990    0.604660    0.589200
  C     -3.833770    1.690070    1.117290
  C     -2.885410    2.188460    0.014930
  C      0.835210   -0.920230    1.647830
  C      2.100870   -1.517000    1.802150
  C      2.451490   -2.180280    2.980370
  C      1.538090   -2.257710    4.036230
  C      0.277520   -1.669850    3.905140
  C     -0.068360   -1.008920    2.722530
  H     -4.702180   -1.290930   -0.479360
  H     -3.423330   -1.073750    0.711000
  H     -5.420960    0.229280    1.401470
  H     -5.462480    1.048600   -0.156850
  H     -3.238720    1.283120    1.944520
  H     -4.404400    2.534180    1.523930
  H     -3.645320    0.378460   -1.981890
  H     -2.475180   -0.875290   -1.574580
  H     -2.182060    2.928550    0.412980
  H     -3.467730    2.693040   -0.769310
  H     -1.527310    1.443450   -1.489400
  H      2.828260   -1.467690    0.994500
  H      3.434340   -2.634060    3.075150
  H      1.808280   -2.772110    4.954470
  H     -0.436750   -1.725820    4.722410
  H     -1.050450   -0.555760    2.626750
  H      0.768840    0.389570   -2.905790
  H      0.253900   -2.983280   -0.271560
  H      0.288450   -4.500110   -2.214920
  H      0.791220   -1.129170   -4.842940
  H      0.554730   -3.584610   -4.513480
  H      3.032750    0.446650   -1.313360
  H      0.186770    2.854300    0.846280
  H      1.663540    4.815860    0.598180
  H      4.513070    2.399970   -1.537870
  H      3.838470    4.600630   -0.592300

 Total Charge           Charge          ....    0
 Multiplicity           Mult            ....    1
 Number of Electrons    NEL             ....  192
 Basis Dimension        Dim             ....  498

ORBITAL ENERGIES
----------------

  NO   OCC          E(Eh)            E(eV)
   0   2.0000     -68.802264     -1872.2048
   1   2.0000     -20.539128      -558.8981
   2   2.0000     -11.283425      -307.0376
   3   2.0000     -11.245392      -306.0027
   4   2.0000     -11.244214      -305.9706
   5   2.0000     -11.242710      -305.9297
   6   2.0000     -11.242609      -305.9269
   7   2.0000     -11.241872      -305.9069
   8   2.0000     -11.240584      -305.8718
   9   2.0000     -11.240138      -305.8597
  10   2.0000     -11.239349      -305.8382
  11   2.0000     -11.238887      -305.8257
  12   2.0000     -11.238734      -305.8215
  13   2.0000     -11.238296      -305.8096
  14   2.0000     -11.237764      -305.7951
  15   2.0000     -11.234991      -305.7196
  16   2.0000     -11.234440      -305.7046
  17   2.0000     -11.233074      -305.6675
  18   2.0000     -11.224499      -305.4342
  19   2.0000     -11.222907      -305.3908
  20   2.0000     -11.220559      -305.3269
  21   2.0000     -11.218817      -305.2795
  22   2.0000     -11.217853      -305.2533
  23   2.0000     -11.217124      -305.2335
  24   2.0000     -11.216892      -305.2272
  25   2.0000     -11.215542      -305.1904
  26   2.0000      -6.144517      -167.2008
  27   2.0000      -4.252109      -115.7058
  28   2.0000      -4.250852      -115.6716
  29   2.0000      -4.250671      -115.6667
  30   2.0000      -1.335708       -36.3465
  31   2.0000      -1.146754       -31.2048
  32   2.0000      -1.143219       -31.1086
  33   2.0000      -1.139447       -31.0059
  34   2.0000      -1.100091       -29.9350
  35   2.0000      -1.018443       -27.7132
  36   2.0000      -1.012989       -27.5648
  37   2.0000      -1.010302       -27.4917
  38   2.0000      -1.006203       -27.3802
  39   2.0000      -1.004631       -27.3374
  40   2.0000      -1.002052       -27.2672
  41   2.0000      -0.998964       -27.1832
  42   2.0000      -0.988461       -26.8974
  43   2.0000      -0.837472       -22.7888
  44   2.0000      -0.830316       -22.5941
  45   2.0000      -0.825064       -22.4511
  46   2.0000      -0.822107       -22.3707
  47   2.0000      -0.818663       -22.2769
  48   2.0000      -0.813134       -22.1265
  49   2.0000      -0.810721       -22.0608
  50   2.0000      -0.806622       -21.9493
  51   2.0000      -0.751429       -20.4474
  52   2.0000      -0.717003       -19.5107
  53   2.0000      -0.694733       -18.9047
  54   2.0000      -0.692312       -18.8388
  55   2.0000      -0.677174       -18.4268
  56   2.0000      -0.652311       -17.7503
  57   2.0000      -0.631778       -17.1915
  58   2.0000      -0.627061       -17.0632
  59   2.0000      -0.624221       -16.9859
  60   2.0000      -0.617608       -16.8060
  61   2.0000      -0.616208       -16.7679
  62   2.0000      -0.611623       -16.6431
  63   2.0000      -0.610033       -16.5998
  64   2.0000      -0.606153       -16.4943
  65   2.0000      -0.588878       -16.0242
  66   2.0000      -0.583003       -15.8643
  67   2.0000      -0.580678       -15.8010
  68   2.0000      -0.576031       -15.6746
  69   2.0000      -0.561931       -15.2909
  70   2.0000      -0.558671       -15.2022
  71   2.0000      -0.544824       -14.8254
  72   2.0000      -0.538950       -14.6656
  73   2.0000      -0.521656       -14.1950
  74   2.0000      -0.517966       -14.0946
  75   2.0000      -0.506152       -13.7731
  76   2.0000      -0.499262       -13.5856
  77   2.0000      -0.497313       -13.5326
  78   2.0000      -0.493219       -13.4212
  79   2.0000      -0.489146       -13.3103
  80   2.0000      -0.487781       -13.2732
  81   2.0000      -0.486037       -13.2258
  82   2.0000      -0.483294       -13.1511
  83   2.0000      -0.471796       -12.8382
  84   2.0000      -0.463423       -12.6104
  85   2.0000      -0.450887       -12.2693
  86   2.0000      -0.431209       -11.7338
  87   2.0000      -0.426899       -11.6165
  88   2.0000      -0.418058       -11.3759
  89   2.0000      -0.403590       -10.9823
  90   2.0000      -0.340413        -9.2631
  91   2.0000      -0.335582        -9.1316
  92   2.0000      -0.334554        -9.1037
  93   2.0000      -0.331189        -9.0121
  94   2.0000      -0.327030        -8.8989
  95   2.0000      -0.321095        -8.7374
  96   0.0000       0.107041         2.9127
  97   0.0000       0.112741         3.0678
  98   0.0000       0.123999         3.3742
  99   0.0000       0.129611         3.5269
 100   0.0000       0.138760         3.7759

MULLIKEN ATOMIC CHARGES
-----------------------
   0 C :   -0.013332
   1 C :   -0.016016
   2 C :   -0.011508
   3 C :   -0.344401
   4 C :   -0.022569
   5 C :   -0.017527
   6 Si:    1.228612
   7 C :   -0.394135
   8 C :   -0.000855
   9 C :   -0.019381
  10 C :   -0.012496
  11 C :   -0.018521
  12 C :    0.010961
  13 O :   -0.666904
  14 C :    0.114726
  15 C :    0.002836
  16 C :   -0.040139
  17 C :   -0.045524
  18 C :   -0.042726
  19 C :    0.011589
  20 C :   -0.332845
  21 C :   -0.013488
  22 C :   -0.020989
  23 C :   -0.012276
  24 C :   -0.018483
  25 C :    0.007688
  26 H :    0.021239
  27 H :    0.036145
  28 H :    0.021919
  29 H :    0.018688
  30 H :    0.039813
  31 H :    0.020680
  32 H :    0.018729
  33 H :    0.044030
  34 H :    0.026375
  35 H :    0.020225
  36 H :    0.013562
  37 H :    0.019293
  38 H :    0.022488
  39 H :    0.026015
  40 H :    0.021129
  41 H :    0.041387
  42 H :    0.030055
  43 H :    0.034984
  44 H :    0.025894
  45 H :    0.024629
  46 H :    0.028618
  47 H :    0.026601
  48 H :    0.030588
  49 H :    0.023172
  50 H :    0.023887
  51 H :    0.027559
Sum of atomic charges:    0.0000000

LOEWDIN ATOMIC CHARGES
----------------------
   0 C :   -0.016529
   1 C :   -0.031222
   2 C :   -0.017286
   3 C :   -0.150936
   4 C :   -0.023603
   5 C :   -0.032557
   6 Si:    0.529821
   7 C :   -0.157904
   8 C :   -0.020935
   9 C :   -0.034251
  10 C :   -0.014305
  11 C :   -0.032653
  12 C :   -0.014485
  13 O :   -0.203413
  14 C :    0.025851
  15 C :   -0.029915
  16 C :   -0.031476
  17 C :   -0.033354
  18 C :   -0.031419
  19 C :   -0.027893
  20 C :   -0.146357
  21 C :   -0.019998
  22 C :   -0.033790
  23 C :   -0.017835
  24 C :   -0.034004
  25 C :   -0.014859
  26 H :    0.018978
  27 H :    0.019850
  28 H :    0.018826
  29 H :    0.013900
  30 H :    0.020051
  31 H :    0.018565
  32 H :    0.018575
  33 H :    0.025166
  34 H :    0.018744
  35 H :    0.019216
  36 H :    0.010661
  37 H :    0.025554
  38 H :    0.026564
  39 H :    0.027405
  40 H :    0.026268
  41 H :    0.030131
  42 H :    0.026361
  43 H :    0.030587
  44 H :    0.027906
  45 H :    0.027350
  46 H :    0.028620
  47 H :    0.025688
  48 H :    0.027839
  49 H :    0.027221
  50 H :    0.027116
  51 H :    0.028164

  Mayer bond orders larger than 0.1
B(  0-C ,  1-C ) :   1.4514 B(  0-C ,  5-C ) :   1.4520 B(  0-C , 51-H ) :   0.9759
B(  1-C ,  2-C ) :   1.4670 B(  1-C , 49-H ) :   0.9755 B(  2-C ,  3-C ) :   1.4326
B(  2-C , 48-H ) :   0.9680 B(  3-C ,  4-C ) :   1.4260 B(  3-C ,  6-Si) :   0.9082
B(  4-C ,  5-C ) :   1.4693 B(  4-C , 47-H ) :   0.9703 B(  5-C , 50-H ) :   0.9749
B(  6-Si,  7-C ) :   0.9183 B(  6-Si, 13-O ) :   0.9374 B(  6-Si, 20-C ) :   0.9290
B(  7-C ,  8-C ) :   1.4169 B(  7-C , 12-C ) :   1.4246 B(  8-C ,  9-C ) :   1.4711
B(  8-C , 42-H ) :   0.9693 B(  9-C , 10-C ) :   1.4508 B(  9-C , 45-H ) :   0.9752
B( 10-C , 11-C ) :   1.4518 B( 10-C , 46-H ) :   0.9760 B( 11-C , 12-C ) :   1.4683
B( 11-C , 44-H ) :   0.9755 B( 12-C , 43-H ) :   0.9709 B( 13-O , 14-C ) :   0.8691
B( 14-C , 15-C ) :   1.0430 B( 14-C , 19-C ) :   1.0509 B( 14-C , 36-H ) :   0.9646
B( 15-C , 16-C ) :   1.0391 B( 15-C , 32-H ) :   0.9593 B( 15-C , 33-H ) :   0.9663
B( 16-C , 17-C ) :   1.0454 B( 16-C , 26-H ) :   0.9729 B( 16-C , 27-H ) :   0.9625
B( 17-C , 18-C ) :   1.0460 B( 17-C , 28-H ) :   0.9725 B( 17-C , 29-H ) :   0.9640
B( 18-C , 19-C ) :   1.0401 B( 18-C , 30-H ) :   0.9617 B( 18-C , 31-H ) :   0.9726
B( 19-C , 34-H ) :   0.9669 B( 19-C , 35-H ) :   0.9578 B( 20-C , 21-C ) :   1.4242
B( 20-C , 25-C ) :   1.4374 B( 21-C , 22-C ) :   1.4785 B( 21-C , 37-H ) :   0.9684
B( 22-C , 23-C ) :   1.4456 B( 22-C , 38-H ) :   0.9749 B( 23-C , 24-C ) :   1.4573
B( 23-C , 39-H ) :   0.9761 B( 24-C , 25-C ) :   1.4525 B( 24-C , 40-H ) :   0.9767
B( 25-C , 41-H ) :   0.9683

E(0)                                       ...  -1287.928061169
E(0)                                       ...  -1287.928061169
E(CORR)(strong-pairs)                      ...     -3.628996636
E(CORR)(weak-pairs)                        ...     -0.005987834
E(CORR)(corrected)                         ...     -3.634984470
E(TOT)                                     ...  -1291.563045640
E(CCSD(T))                                 ...  -1291.707932105
FINAL SINGLE POINT ENERGY     -1291.707932104742

DIPOLE MOMENT
-------------
                                X             Y             Z
Electronic contribution:     17.69406      -3.46501       0.37062
Nuclear contribution   :    -17.61521       3.48115      -0.83531
                        -----------------------------------------
Total Dipole Moment    :      0.07885       0.01615      -0.46469
                        -----------------------------------------
Magnitude (a.u.)       :      0.47161
Magnitude (Debye)      :      1.19873

Rotational constants in cm-1:     0.006004     0.005254     0.005242
Rotational constants in MHz :   179.984549   157.496297   157.140364

                             ****ORCA TERMINATED NORMALLY****
TOTAL RUN TIME: 0 days 0 hours 43 minutes 59 seconds 578 msec
