                         Program Version 4.1.x  -  STABLE  -
|  1> ! RHF DLPNO-CCSD(T) cc-pVDZ RIJK cc-pVTZ/JK cc-pVDZ/C
|  2> ! KDIIS SOSCF TightSCF TightPNO
|  3>
|  4> %pal nprocs 4 end
|  5>
|  6> %maxcore 8000
|  7>
|  8> %scf maxiter 300
|  9>      shift shift 0.2 erroff 0.1 end
| 10> end
| 11>
| 12> * xyzfile 0 1 phenylcyclohexane_ax.xyz
| 13>
| 14>
| 15>                          ****END OF INPUT****

CARTESIAN COORDINATES (ANGSTROEM)
---------------------------------
  C     -3.373250   -0.284350   -0.513770
  C     -2.490030   -1.357360   -0.396520
  C     -1.189400   -1.156470    0.079990
  C     -0.733710    0.118650    0.446060
  C     -1.645080    1.184920    0.333390
  C     -2.943250    0.992470   -0.139840
  C      0.662570    0.391680    1.019540
  C      1.429200    1.493550    0.238140
  C      2.001630    0.994800   -1.097020
  C      2.930430   -0.209940   -0.885020
  C      2.201690   -1.340740   -0.143380
  C      1.576450   -0.846580    1.175390
  H      0.784840    2.363220    0.072110
  H      2.258820    1.840840    0.870620
  H      2.542190    1.809890   -1.594080
  H      3.805400    0.107830   -0.298470
  H      0.489430    0.786680    2.031370
  H      2.893830   -2.165370    0.068830
  H      2.392340   -0.564340    1.855150
  H      1.037690   -1.659910    1.676030
  H      3.313650   -0.573720   -1.846400
  H      1.178800    0.709910   -1.767130
  H      1.425650   -1.748440   -0.802670
  H     -1.339400    2.184170    0.632420
  H     -0.534510   -2.015680    0.168330
  H     -2.808670   -2.358700   -0.673380
  H     -3.620870    1.839010   -0.211030
  H     -4.382780   -0.439030   -0.883460

 Total Charge           Charge          ....    0
 Multiplicity           Mult            ....    1
 Number of Electrons    NEL             ....   88
 Basis Dimension        Dim             ....  248

ORBITAL ENERGIES
----------------

  NO   OCC          E(Eh)            E(eV)
   0   2.0000     -11.241574      -305.8988
   1   2.0000     -11.236316      -305.7557
   2   2.0000     -11.236135      -305.7508
   3   2.0000     -11.235893      -305.7442
   4   2.0000     -11.232726      -305.6580
   5   2.0000     -11.231641      -305.6285
   6   2.0000     -11.231455      -305.6234
   7   2.0000     -11.224795      -305.4422
   8   2.0000     -11.223576      -305.4090
   9   2.0000     -11.221189      -305.3441
  10   2.0000     -11.220110      -305.3147
  11   2.0000     -11.218778      -305.2785
  12   2.0000      -1.151434       -31.3321
  13   2.0000      -1.110740       -30.2248
  14   2.0000      -1.035714       -28.1832
  15   2.0000      -1.010271       -27.4909
  16   2.0000      -0.997444       -27.1418
  17   2.0000      -0.974700       -26.5229
  18   2.0000      -0.849594       -23.1186
  19   2.0000      -0.835595       -22.7377
  20   2.0000      -0.811990       -22.0954
  21   2.0000      -0.794430       -21.6175
  22   2.0000      -0.739914       -20.1341
  23   2.0000      -0.686057       -18.6685
  24   2.0000      -0.647981       -17.6324
  25   2.0000      -0.627870       -17.0852
  26   2.0000      -0.621800       -16.9200
  27   2.0000      -0.608878       -16.5684
  28   2.0000      -0.589683       -16.0461
  29   2.0000      -0.587387       -15.9836
  30   2.0000      -0.571390       -15.5483
  31   2.0000      -0.534019       -14.5314
  32   2.0000      -0.524182       -14.2637
  33   2.0000      -0.520182       -14.1549
  34   2.0000      -0.512961       -13.9584
  35   2.0000      -0.490951       -13.3595
  36   2.0000      -0.484762       -13.1910
  37   2.0000      -0.473875       -12.8948
  38   2.0000      -0.472549       -12.8587
  39   2.0000      -0.443814       -12.0768
  40   2.0000      -0.429246       -11.6804
  41   2.0000      -0.423342       -11.5197
  42   2.0000      -0.329136        -8.9563
  43   2.0000      -0.318481        -8.6663
  44   0.0000       0.134330         3.6553
  45   0.0000       0.139053         3.7838
  46   0.0000       0.177283         4.8241
  47   0.0000       0.193426         5.2634
  48   0.0000       0.205797         5.6000

MULLIKEN ATOMIC CHARGES
-----------------------
   0 C :   -0.028703
   1 C :   -0.000696
   2 C :   -0.029162
   3 C :   -0.104487
   4 C :    0.006133
   5 C :   -0.006222
   6 C :   -0.104406
   7 C :    0.003511
   8 C :   -0.037101
   9 C :   -0.038019
  10 C :   -0.040465
  11 C :   -0.005342
  12 H :    0.023167
  13 H :    0.021157
  14 H :    0.022800
  15 H :    0.019464
  16 H :    0.032952
  17 H :    0.023311
  18 H :    0.024482
  19 H :    0.028050
  20 H :    0.022046
  21 H :    0.034142
  22 H :    0.027668
  23 H :    0.015578
  24 H :    0.024364
  25 H :    0.021451
  26 H :    0.022833
  27 H :    0.021494
Sum of atomic charges:   -0.0000000

LOEWDIN ATOMIC CHARGES
----------------------
   0 C :   -0.036489
   1 C :   -0.024211
   2 C :   -0.035997
   3 C :   -0.016254
   4 C :   -0.028734
   5 C :   -0.024224
   6 C :   -0.024330
   7 C :   -0.022038
   8 C :   -0.032888
   9 C :   -0.032614
  10 C :   -0.034154
  11 C :   -0.025753
  12 H :    0.016809
  13 H :    0.017412
  14 H :    0.019567
  15 H :    0.014493
  16 H :    0.029224
  17 H :    0.019822
  18 H :    0.021261
  19 H :    0.018432
  20 H :    0.019137
  21 H :    0.019606
  22 H :    0.015296
  23 H :    0.023345
  24 H :    0.023754
  25 H :    0.026779
  26 H :    0.027004
  27 H :    0.025747

  Mayer bond orders larger than 0.1
B(  0-C ,  1-C ) :   1.4684 B(  0-C ,  5-C ) :   1.4395 B(  0-C , 27-H ) :   0.9765
B(  1-C ,  2-C ) :   1.4610 B(  1-C , 25-H ) :   0.9720 B(  2-C ,  3-C ) :   1.4606
B(  2-C , 24-H ) :   0.9656 B(  3-C ,  4-C ) :   1.4159 B(  3-C ,  6-C ) :   0.9923
B(  4-C ,  5-C ) :   1.4887 B(  4-C , 23-H ) :   0.9698 B(  5-C , 26-H ) :   0.9734
B(  6-C ,  7-C ) :   1.0375 B(  6-C , 11-C ) :   1.0630 B(  6-C , 16-H ) :   0.9457
B(  7-C ,  8-C ) :   1.0391 B(  7-C , 12-H ) :   0.9693 B(  7-C , 13-H ) :   0.9629
B(  8-C ,  9-C ) :   1.0444 B(  8-C , 14-H ) :   0.9720 B(  8-C , 21-H ) :   0.9632
B(  9-C , 10-C ) :   1.0460 B(  9-C , 15-H ) :   0.9652 B(  9-C , 20-H ) :   0.9728
B( 10-C , 11-C ) :   1.0369 B( 10-C , 17-H ) :   0.9719 B( 10-C , 22-H ) :   0.9646
B( 11-C , 18-H ) :   0.9619 B( 11-C , 19-H ) :   0.9668

E(0)                                       ...   -463.778644838
E(0)                                       ...   -463.778644838
E(CORR)(strong-pairs)                      ...     -1.736681645
E(CORR)(weak-pairs)                        ...     -0.001354570
E(CORR)(corrected)                         ...     -1.738036215
E(TOT)                                     ...   -465.516681052
E(CCSD(T))                                 ...   -465.581634207
FINAL SINGLE POINT ENERGY      -465.581634207129

DIPOLE MOMENT
-------------
                                X             Y             Z
Electronic contribution:     -9.59315      -0.08677       0.76645
Nuclear contribution   :      9.73145       0.11997      -0.72370
                        -----------------------------------------
Total Dipole Moment    :      0.13830       0.03320       0.04275
                        -----------------------------------------
Magnitude (a.u.)       :      0.14852
Magnitude (Debye)      :      0.37750

Rotational constants in cm-1:     0.062921     0.020431     0.018295
Rotational constants in MHz :  1886.309840   612.500555   548.473777

                             ****ORCA TERMINATED NORMALLY****
TOTAL RUN TIME: 0 days 0 hours 13 minutes 30 seconds 505 msec
