                         Program Version 4.1.x  -  STABLE  -
|  1> ! RHF DLPNO-CCSD(T) cc-pVDZ RIJK cc-pVTZ/JK cc-pVDZ/C
|  2> ! KDIIS SOSCF TightSCF TightPNO
|  3>
|  4> %pal nprocs 4 end
|  5>
|  6> %maxcore 8000
|  7>
|  8> %scf maxiter 300
|  9>      shift shift 0.2 erroff 0.1 end
| 10> end
| 11>
| 12> * xyzfile 0 1 phenylcyclohexane_eq.xyz
| 13>
| 14>
| 15>                          ****END OF INPUT****

CARTESIAN COORDINATES (ANGSTROEM)
---------------------------------
  C     -3.715070    0.238280   -0.000570
  C     -2.833240    1.323310   -0.002950
  C     -1.453310    1.108960   -0.002440
  C     -0.920530   -0.191030    0.000490
  C     -1.819270   -1.267990    0.002850
  C     -3.201880   -1.060380    0.002330
  C      0.579570   -0.436910    0.001050
  C      1.271910    0.111040   -1.268990
  C      2.781480   -0.179070   -1.268070
  C      3.462830    0.359960   -0.000870
  C      2.781520   -0.173190    1.268830
  C      1.271960    0.116960    1.268480
  H      0.800510   -0.320610   -2.160300
  H      1.112000    1.196870   -1.327600
  H      3.245150    0.253280   -2.163500
  H      3.413130    1.458870   -0.003410
  H      0.727070   -1.527310    0.003590
  H      3.245240    0.263260    2.162240
  H      1.112060    1.203060    1.322010
  H      0.800590   -0.310520    2.161810
  H      4.527770    0.096330   -0.000280
  H      2.940370   -1.265730   -1.329420
  H      2.940360   -1.259570    1.335180
  H     -1.430440   -2.283800    0.005110
  H     -0.785670    1.966490   -0.004360
  H     -3.220210    2.338730   -0.005220
  H     -3.875260   -1.913230    0.004190
  H     -4.788530    0.404250   -0.000970

 Total Charge           Charge          ....    0
 Multiplicity           Mult            ....    1
 Number of Electrons    NEL             ....   88
 Basis Dimension        Dim             ....  248

ORBITAL ENERGIES
----------------

  NO   OCC          E(Eh)            E(eV)
   0   2.0000     -11.239236      -305.8352
   1   2.0000     -11.236688      -305.7658
   2   2.0000     -11.236252      -305.7540
   3   2.0000     -11.233347      -305.6749
   4   2.0000     -11.233206      -305.6711
   5   2.0000     -11.232398      -305.6491
   6   2.0000     -11.232236      -305.6447
   7   2.0000     -11.223161      -305.3977
   8   2.0000     -11.223152      -305.3975
   9   2.0000     -11.222647      -305.3838
  10   2.0000     -11.222404      -305.3771
  11   2.0000     -11.221869      -305.3626
  12   2.0000      -1.151843       -31.3432
  13   2.0000      -1.112561       -30.2743
  14   2.0000      -1.039300       -28.2808
  15   2.0000      -1.007427       -27.4135
  16   2.0000      -1.001251       -27.2454
  17   2.0000      -0.971531       -26.4367
  18   2.0000      -0.849282       -23.1101
  19   2.0000      -0.830553       -22.6005
  20   2.0000      -0.821036       -22.3415
  21   2.0000      -0.786674       -21.4065
  22   2.0000      -0.748678       -20.3726
  23   2.0000      -0.690362       -18.7857
  24   2.0000      -0.645105       -17.5542
  25   2.0000      -0.632159       -17.2019
  26   2.0000      -0.616434       -16.7740
  27   2.0000      -0.599087       -16.3020
  28   2.0000      -0.596695       -16.2369
  29   2.0000      -0.583265       -15.8715
  30   2.0000      -0.572872       -15.5886
  31   2.0000      -0.540990       -14.7211
  32   2.0000      -0.532045       -14.4777
  33   2.0000      -0.523039       -14.2326
  34   2.0000      -0.493523       -13.4295
  35   2.0000      -0.491785       -13.3822
  36   2.0000      -0.483409       -13.1542
  37   2.0000      -0.481987       -13.1155
  38   2.0000      -0.471004       -12.8167
  39   2.0000      -0.449226       -12.2241
  40   2.0000      -0.428509       -11.6603
  41   2.0000      -0.427009       -11.6195
  42   2.0000      -0.329585        -8.9685
  43   2.0000      -0.319062        -8.6821
  44   0.0000       0.136621         3.7176
  45   0.0000       0.141462         3.8494
  46   0.0000       0.180181         4.9030
  47   0.0000       0.187151         5.0926
  48   0.0000       0.190674         5.1885

MULLIKEN ATOMIC CHARGES
-----------------------
   0 C :   -0.030714
   1 C :   -0.004758
   2 C :    0.003284
   3 C :   -0.110064
   4 C :   -0.011948
   5 C :   -0.006264
   6 C :   -0.109798
   7 C :    0.019360
   8 C :   -0.033919
   9 C :   -0.042824
  10 C :   -0.033919
  11 C :    0.019360
  12 H :    0.028080
  13 H :    0.021702
  14 H :    0.024292
  15 H :    0.022617
  16 H :    0.009883
  17 H :    0.024291
  18 H :    0.021703
  19 H :    0.028080
  20 H :    0.023307
  21 H :    0.022078
  22 H :    0.022077
  23 H :    0.010894
  24 H :    0.015234
  25 H :    0.022728
  26 H :    0.023154
  27 H :    0.022087
Sum of atomic charges:   -0.0000000

LOEWDIN ATOMIC CHARGES
----------------------
   0 C :   -0.035957
   1 C :   -0.023489
   2 C :   -0.027816
   3 C :   -0.013577
   4 C :   -0.032868
   5 C :   -0.023919
   6 C :   -0.025609
   7 C :   -0.021651
   8 C :   -0.032514
   9 C :   -0.033758
  10 C :   -0.032515
  11 C :   -0.021652
  12 H :    0.021280
  13 H :    0.014805
  14 H :    0.020217
  15 H :    0.015712
  16 H :    0.019541
  17 H :    0.020216
  18 H :    0.014805
  19 H :    0.021280
  20 H :    0.019459
  21 H :    0.016126
  22 H :    0.016127
  23 H :    0.023587
  24 H :    0.022415
  25 H :    0.026931
  26 H :    0.026998
  27 H :    0.025826

  Mayer bond orders larger than 0.1
B(  0-C ,  1-C ) :   1.4451 B(  0-C ,  5-C ) :   1.4632 B(  0-C , 27-H ) :   0.9770
B(  1-C ,  2-C ) :   1.4828 B(  1-C , 25-H ) :   0.9738 B(  2-C ,  3-C ) :   1.4125
B(  2-C , 24-H ) :   0.9683 B(  3-C ,  4-C ) :   1.4605 B(  3-C ,  6-C ) :   1.0562
B(  4-C ,  5-C ) :   1.4590 B(  4-C , 23-H ) :   0.9693 B(  5-C , 26-H ) :   0.9737
B(  6-C ,  7-C ) :   1.0152 B(  6-C , 11-C ) :   1.0152 B(  6-C , 16-H ) :   0.9425
B(  7-C ,  8-C ) :   1.0512 B(  7-C , 12-H ) :   0.9684 B(  7-C , 13-H ) :   0.9595
B(  8-C ,  9-C ) :   1.0448 B(  8-C , 14-H ) :   0.9714 B(  8-C , 21-H ) :   0.9624
B(  9-C , 10-C ) :   1.0448 B(  9-C , 15-H ) :   0.9642 B(  9-C , 20-H ) :   0.9725
B( 10-C , 11-C ) :   1.0512 B( 10-C , 17-H ) :   0.9714 B( 10-C , 22-H ) :   0.9624
B( 11-C , 18-H ) :   0.9595 B( 11-C , 19-H ) :   0.9684

E(0)                                       ...   -463.785716886
E(0)                                       ...   -463.785716886
E(CORR)(strong-pairs)                      ...     -1.734621947
E(CORR)(weak-pairs)                        ...     -0.001429544
E(CORR)(corrected)                         ...     -1.736051491
E(TOT)                                     ...   -465.521768377
E(CCSD(T))                                 ...   -465.586468572
FINAL SINGLE POINT ENERGY      -465.586468572002

DIPOLE MOMENT
-------------
                                X             Y             Z
Electronic contribution:    -10.93890      -0.31821       0.00094
Nuclear contribution   :     11.10068       0.30976      -0.00094
                        -----------------------------------------
Total Dipole Moment    :      0.16178      -0.00845      -0.00000
                        -----------------------------------------
Magnitude (a.u.)       :      0.16200
Magnitude (Debye)      :      0.41178

Rotational constants in cm-1:     0.081277     0.015862     0.015850
Rotational constants in MHz :  2436.616353   475.542304   475.163550

                             ****ORCA TERMINATED NORMALLY****
TOTAL RUN TIME: 0 days 0 hours 12 minutes 11 seconds 297 msec
