                         Program Version 4.1.x  -  STABLE  -
|  1> ! RHF DLPNO-CCSD(T) cc-pVDZ RIJK cc-pVTZ/JK cc-pVDZ/C
|  2> ! KDIIS SOSCF TightSCF TightPNO
|  3>
|  4> %pal nprocs 4 end
|  5>
|  6> %maxcore 8000
|  7>
|  8> %scf maxiter 300
|  9>      shift shift 0.2 erroff 0.1 end
| 10> end
| 11>
| 12> * xyzfile 0 1 piperidine_eq.xyz
| 13>
| 14>
| 15>                          ****END OF INPUT****

CARTESIAN COORDINATES (ANGSTROEM)
---------------------------------
  C      0.059440    1.458400    0.230910
  C      1.294550    0.664770   -0.225930
  C      1.187500   -0.802300    0.205460
  N     -0.056030   -1.380300   -0.312250
  C     -1.248790   -0.703430    0.205060
  C     -1.236350    0.767880   -0.225510
  H     -0.096580   -2.374940   -0.111070
  H      2.030090   -1.380340   -0.189830
  H      1.241420   -0.853970    1.312140
  H     -1.307670   -0.751380    1.311640
  H     -2.135310   -1.210730   -0.191290
  H      1.374320    0.703420   -1.319890
  H      2.210140    1.106460    0.186510
  H     -2.112790    1.282190    0.187750
  H     -1.313250    0.813610   -1.319420
  H      0.062520    1.529530    1.328630
  H      0.101270    2.486290   -0.149410

 Total Charge           Charge          ....    0
 Multiplicity           Mult            ....    1
 Number of Electrons    NEL             ....   48
 Basis Dimension        Dim             ....  139

ORBITAL ENERGIES
----------------

  NO   OCC          E(Eh)            E(eV)
   0   2.0000     -15.535402      -422.7398
   1   2.0000     -11.246612      -306.0359
   2   2.0000     -11.246593      -306.0354
   3   2.0000     -11.220639      -305.3291
   4   2.0000     -11.218270      -305.2647
   5   2.0000     -11.218184      -305.2623
   6   2.0000      -1.202655       -32.7259
   7   2.0000      -1.050891       -28.5962
   8   2.0000      -1.007304       -27.4101
   9   2.0000      -0.859205       -23.3801
  10   2.0000      -0.836409       -22.7598
  11   2.0000      -0.749353       -20.3909
  12   2.0000      -0.677631       -18.4393
  13   2.0000      -0.615485       -16.7482
  14   2.0000      -0.605987       -16.4897
  15   2.0000      -0.580055       -15.7841
  16   2.0000      -0.554726       -15.0949
  17   2.0000      -0.539258       -14.6740
  18   2.0000      -0.525695       -14.3049
  19   2.0000      -0.482356       -13.1256
  20   2.0000      -0.462188       -12.5768
  21   2.0000      -0.439817       -11.9680
  22   2.0000      -0.438476       -11.9315
  23   2.0000      -0.359174        -9.7736
  24   0.0000       0.180125         4.9014
  25   0.0000       0.208690         5.6788
  26   0.0000       0.217884         5.9289
  27   0.0000       0.218229         5.9383
  28   0.0000       0.252311         6.8657

MULLIKEN ATOMIC CHARGES
-----------------------
   0 C :   -0.065236
   1 C :   -0.033456
   2 C :    0.099593
   3 N :   -0.372473
   4 C :    0.099594
   5 C :   -0.033519
   6 H :    0.094448
   7 H :    0.025658
   8 H :    0.003655
   9 H :    0.003674
  10 H :    0.025662
  11 H :    0.031741
  12 H :    0.020853
  13 H :    0.020867
  14 H :    0.031752
  15 H :    0.021264
  16 H :    0.025923
Sum of atomic charges:    0.0000000

LOEWDIN ATOMIC CHARGES
----------------------
   0 C :   -0.035503
   1 C :   -0.034495
   2 C :   -0.012053
   3 N :   -0.043736
   4 C :   -0.012060
   5 C :   -0.034478
   6 H :    0.034304
   7 H :    0.016858
   8 H :   -0.003409
   9 H :   -0.003411
  10 H :    0.016864
  11 H :    0.019528
  12 H :    0.018899
  13 H :    0.018900
  14 H :    0.019530
  15 H :    0.015137
  16 H :    0.019126

  Mayer bond orders larger than 0.1
B(  0-C ,  1-C ) :   1.0458 B(  0-C ,  5-C ) :   1.0458 B(  0-C , 15-H ) :   0.9645
B(  0-C , 16-H ) :   0.9746 B(  1-C ,  2-C ) :   1.0442 B(  1-C , 11-H ) :   0.9619
B(  1-C , 12-H ) :   0.9724 B(  2-C ,  3-N ) :   1.0207 B(  2-C ,  7-H ) :   0.9754
B(  2-C ,  8-H ) :   0.9595 B(  3-N ,  4-C ) :   1.0207 B(  3-N ,  6-H ) :   0.9707
B(  4-C ,  5-C ) :   1.0442 B(  4-C ,  9-H ) :   0.9595 B(  4-C , 10-H ) :   0.9754
B(  5-C , 13-H ) :   0.9724 B(  5-C , 14-H ) :   0.9619

E(0)                                       ...   -250.207828426
E(0)                                       ...   -250.207828426
E(CORR)(strong-pairs)                      ...     -0.950389590
E(CORR)(weak-pairs)                        ...     -0.000354804
E(CORR)(corrected)                         ...     -0.950744395
E(TOT)                                     ...   -251.158572820
E(CCSD(T))                                 ...   -251.187057065
FINAL SINGLE POINT ENERGY      -251.187057064926

DIPOLE MOMENT
-------------
                                X             Y             Z
Electronic contribution:     -0.06107      -1.51972      -0.78699
Nuclear contribution   :      0.05698       1.42081       1.10521
                        -----------------------------------------
Total Dipole Moment    :     -0.00409      -0.09890       0.31822
                        -----------------------------------------
Magnitude (a.u.)       :      0.33326
Magnitude (Debye)      :      0.84708

Rotational constants in cm-1:     0.149836     0.147251     0.083999
Rotational constants in MHz :  4491.959580  4414.468501  2518.239865

                             ****ORCA TERMINATED NORMALLY****
TOTAL RUN TIME: 0 days 0 hours 1 minutes 44 seconds 457 msec
