                         Program Version 4.1.x  -  STABLE  -
|  1> ! RHF DLPNO-CCSD(T) cc-pVDZ RIJK cc-pVTZ/JK cc-pVDZ/C
|  2> ! KDIIS SOSCF TightSCF TightPNO
|  3>
|  4> %pal nprocs 4 end
|  5>
|  6> %maxcore 8000
|  7>
|  8> %scf maxiter 300
|  9>      shift shift 0.2 erroff 0.1 end
| 10> end
| 11>
| 12> * xyzfile 0 1 piperidine_ax.xyz
| 13>
| 14>
| 15>                          ****END OF INPUT****

CARTESIAN COORDINATES (ANGSTROEM)
---------------------------------
  C     -0.000850    1.460800    0.221290
  C      1.265220    0.713270   -0.229120
  C      1.220830   -0.757720    0.222830
  N      0.000840   -1.471090   -0.174000
  C     -1.219980   -0.759110    0.222800
  C     -1.266030    0.711860   -0.229100
  H      0.000930   -1.615900   -1.181720
  H      2.084060   -1.310820   -0.164320
  H      1.283470   -0.801750    1.320000
  H     -1.282560   -0.803220    1.319970
  H     -2.082570   -1.313180   -0.164370
  H      1.341190    0.750530   -1.326000
  H      2.165230    1.201510    0.167600
  H     -2.166570    1.199100    0.167630
  H     -1.342030    0.749050   -1.325970
  H     -0.000890    1.540560    1.318540
  H     -0.001450    2.487100   -0.165600

 Total Charge           Charge          ....    0
 Multiplicity           Mult            ....    1
 Number of Electrons    NEL             ....   48
 Basis Dimension        Dim             ....  139

ORBITAL ENERGIES
----------------

  NO   OCC          E(Eh)            E(eV)
   0   2.0000     -15.535568      -422.7443
   1   2.0000     -11.246497      -306.0327
   2   2.0000     -11.246479      -306.0323
   3   2.0000     -11.223614      -305.4101
   4   2.0000     -11.220910      -305.3365
   5   2.0000     -11.220835      -305.3344
   6   2.0000      -1.202187       -32.7132
   7   2.0000      -1.052011       -28.6267
   8   2.0000      -1.007245       -27.4085
   9   2.0000      -0.859246       -23.3813
  10   2.0000      -0.840787       -22.8790
  11   2.0000      -0.766969       -20.8703
  12   2.0000      -0.658710       -17.9244
  13   2.0000      -0.612519       -16.6675
  14   2.0000      -0.604650       -16.4534
  15   2.0000      -0.603279       -16.4161
  16   2.0000      -0.542667       -14.7667
  17   2.0000      -0.525724       -14.3057
  18   2.0000      -0.518249       -14.1023
  19   2.0000      -0.487285       -13.2597
  20   2.0000      -0.484668       -13.1885
  21   2.0000      -0.454555       -12.3691
  22   2.0000      -0.443307       -12.0630
  23   2.0000      -0.350563        -9.5393
  24   0.0000       0.178531         4.8581
  25   0.0000       0.196671         5.3517
  26   0.0000       0.214868         5.8468
  27   0.0000       0.223619         6.0850
  28   0.0000       0.259541         7.0625

MULLIKEN ATOMIC CHARGES
-----------------------
   0 C :   -0.055409
   1 C :   -0.057158
   2 C :    0.105893
   3 N :   -0.373911
   4 C :    0.105892
   5 C :   -0.057144
   6 H :    0.091641
   7 H :    0.026847
   8 H :    0.028237
   9 H :    0.028235
  10 H :    0.026849
  11 H :    0.017937
  12 H :    0.022552
  13 H :    0.022551
  14 H :    0.017933
  15 H :    0.023719
  16 H :    0.025336
Sum of atomic charges:   -0.0000000

LOEWDIN ATOMIC CHARGES
----------------------
   0 C :   -0.035946
   1 C :   -0.047122
   2 C :   -0.014027
   3 N :   -0.038999
   4 C :   -0.014021
   5 C :   -0.047125
   6 H :    0.030802
   7 H :    0.017852
   8 H :    0.015535
   9 H :    0.015534
  10 H :    0.017851
  11 H :    0.012861
  12 H :    0.019487
  13 H :    0.019488
  14 H :    0.012860
  15 H :    0.016294
  16 H :    0.018675

  Mayer bond orders larger than 0.1
B(  0-C ,  1-C ) :   1.0405 B(  0-C ,  5-C ) :   1.0405 B(  0-C , 15-H ) :   0.9659
B(  0-C , 16-H ) :   0.9758 B(  1-C ,  2-C ) :   1.0318 B(  1-C , 11-H ) :   0.9634
B(  1-C , 12-H ) :   0.9700 B(  2-C ,  3-N ) :   1.0256 B(  2-C ,  7-H ) :   0.9799
B(  2-C ,  8-H ) :   0.9681 B(  3-N ,  4-C ) :   1.0256 B(  3-N ,  6-H ) :   0.9713
B(  4-C ,  5-C ) :   1.0318 B(  4-C ,  9-H ) :   0.9681 B(  4-C , 10-H ) :   0.9799
B(  5-C , 13-H ) :   0.9700 B(  5-C , 14-H ) :   0.9634

E(0)                                       ...   -250.206378499
E(0)                                       ...   -250.206378499
E(CORR)(strong-pairs)                      ...     -0.950847453
E(CORR)(weak-pairs)                        ...     -0.000355041
E(CORR)(corrected)                         ...     -0.951202494
E(TOT)                                     ...   -251.157580993
E(CCSD(T))                                 ...   -251.186221304
FINAL SINGLE POINT ENERGY      -251.186221303538

DIPOLE MOMENT
-------------
                                X             Y             Z
Electronic contribution:      0.00100      -1.82101      -0.19897
Nuclear contribution   :     -0.00121       2.19610      -0.03732
                        -----------------------------------------
Total Dipole Moment    :     -0.00021       0.37509      -0.23629
                        -----------------------------------------
Magnitude (a.u.)       :      0.44332
Magnitude (Debye)      :      1.12682

Rotational constants in cm-1:     0.148877     0.145581     0.083708
Rotational constants in MHz :  4463.214557  4364.410999  2509.511634

                             ****ORCA TERMINATED NORMALLY****
TOTAL RUN TIME: 0 days 0 hours 2 minutes 0 seconds 946 msec
