                         Program Version 4.1.x  -  STABLE  -
|  1> ! RHF DLPNO-CCSD(T) cc-pVDZ RIJK cc-pVTZ/JK cc-pVDZ/C
|  2> ! KDIIS SOSCF TightSCF TightPNO
|  3>
|  4> %pal nprocs 4 end
|  5>
|  6> %maxcore 8000
|  7>
|  8> %scf maxiter 300
|  9>      shift shift 0.2 erroff 0.1 end
| 10> end
| 11>
| 12> * xyzfile 0 1 propane_ecl.xyz
| 13>
| 14>
| 15>                          ****END OF INPUT****

CARTESIAN COORDINATES (ANGSTROEM)
---------------------------------
  C     -1.276410   -0.266290    0.000000
  C     -0.003520    0.590590    0.000000
  C      1.278540   -0.258230    0.000000
  H     -2.189950    0.372700   -0.000040
  H     -1.320490   -0.918670   -0.902590
  H     -1.320510   -0.918610    0.902630
  H     -0.014890    1.258900   -0.894550
  H     -0.014890    1.258870    0.894560
  H      1.905350   -0.049780   -0.897860
  H      1.905350   -0.049760    0.897850
  H      1.058310   -1.350070    0.000000

 Total Charge           Charge          ....    0
 Multiplicity           Mult            ....    1
 Number of Electrons    NEL             ....   26
 Basis Dimension        Dim             ....   82

ORBITAL ENERGIES
----------------

  NO   OCC          E(Eh)            E(eV)
   0   2.0000     -11.228948      -305.5552
   1   2.0000     -11.225229      -305.4540
   2   2.0000     -11.223653      -305.4111
   3   2.0000      -1.046064       -28.4649
   4   2.0000      -0.917390       -24.9635
   5   2.0000      -0.791946       -21.5499
   6   2.0000      -0.614592       -16.7239
   7   2.0000      -0.591294       -16.0899
   8   2.0000      -0.540638       -14.7115
   9   2.0000      -0.529278       -14.4024
  10   2.0000      -0.473202       -12.8765
  11   2.0000      -0.468462       -12.7475
  12   2.0000      -0.456600       -12.4247
  13   0.0000       0.180829         4.9206
  14   0.0000       0.226494         6.1632
  15   0.0000       0.226731         6.1697
  16   0.0000       0.229976         6.2580
  17   0.0000       0.267737         7.2855

MULLIKEN ATOMIC CHARGES
-----------------------
   0 C :   -0.071903
   1 C :   -0.123917
   2 C :   -0.076177
   3 H :    0.032522
   4 H :    0.035180
   5 H :    0.035180
   6 H :    0.032583
   7 H :    0.032582
   8 H :    0.036135
   9 H :    0.036135
  10 H :    0.031681
Sum of atomic charges:   -0.0000000

LOEWDIN ATOMIC CHARGES
----------------------
   0 C :   -0.061583
   1 C :   -0.052768
   2 C :   -0.063383
   3 H :    0.022294
   4 H :    0.021288
   5 H :    0.021288
   6 H :    0.021284
   7 H :    0.021284
   8 H :    0.024155
   9 H :    0.024154
  10 H :    0.021986

  Mayer bond orders larger than 0.1
B(  0-C ,  1-C ) :   1.0583 B(  0-C ,  3-H ) :   0.9845 B(  0-C ,  4-H ) :   0.9808
B(  0-C ,  5-H ) :   0.9808 B(  1-C ,  2-C ) :   1.0247 B(  1-C ,  6-H ) :   0.9776
B(  1-C ,  7-H ) :   0.9776 B(  2-C ,  8-H ) :   0.9872 B(  2-C ,  9-H ) :   0.9872
B(  2-C , 10-H ) :   0.9891

E(0)                                       ...   -118.264214474
E(0)                                       ...   -118.264214474
E(CORR)(strong-pairs)                      ...     -0.498204271
E(CORR)(weak-pairs)                        ...     -0.000091700
E(CORR)(corrected)                         ...     -0.498295971
E(TOT)                                     ...   -118.762510445
E(CCSD(T))                                 ...   -118.775609954
FINAL SINGLE POINT ENERGY      -118.775609953615

DIPOLE MOMENT
-------------
                                X             Y             Z
Electronic contribution:     -0.00260       0.46197       0.00000
Nuclear contribution   :      0.00919      -0.43897       0.00000
                        -----------------------------------------
Total Dipole Moment    :      0.00659       0.02300       0.00000
                        -----------------------------------------
Magnitude (a.u.)       :      0.02393
Magnitude (Debye)      :      0.06082

Rotational constants in cm-1:     0.957937     0.276893     0.245318
Rotational constants in MHz : 28718.217267  8301.041820  7354.446592

                             ****ORCA TERMINATED NORMALLY****
TOTAL RUN TIME: 0 days 0 hours 0 minutes 13 seconds 723 msec
