                         Program Version 4.1.x  -  STABLE  -
|  1> ! RHF DLPNO-CCSD(T) cc-pVDZ RIJK cc-pVTZ/JK cc-pVDZ/C
|  2> ! KDIIS SOSCF TightSCF TightPNO
|  3>
|  4> %pal nprocs 4 end
|  5>
|  6> %maxcore 8000
|  7>
|  8> %scf maxiter 300
|  9>      shift shift 0.2 erroff 0.1 end
| 10> end
| 11>
| 12> * xyzfile 0 1 propanal_eclipsed.xyz
| 13>
| 14>
| 15>                          ****END OF INPUT****

CARTESIAN COORDINATES (ANGSTROEM)
---------------------------------
  C     -1.451470   -0.502480   -0.000010
  C     -0.546780    0.728340    0.000030
  C      0.932300    0.424670   -0.000020
  O      1.414240   -0.689570    0.000020
  H      1.595730    1.318490   -0.000100
  H     -0.737540    1.373760    0.871410
  H     -0.737590    1.373850   -0.871280
  H     -2.504430   -0.205460   -0.000010
  H     -1.267190   -1.123590   -0.881040
  H     -1.267180   -1.123650    0.880970

 Total Charge           Charge          ....    0
 Multiplicity           Mult            ....    1
 Number of Electrons    NEL             ....   32
 Basis Dimension        Dim             ....   86

ORBITAL ENERGIES
----------------

  NO   OCC          E(Eh)            E(eV)
   0   2.0000     -20.558915      -559.4365
   1   2.0000     -11.337143      -308.4994
   2   2.0000     -11.250403      -306.1390
   3   2.0000     -11.230814      -305.6060
   4   2.0000      -1.388982       -37.7961
   5   2.0000      -1.058921       -28.8147
   6   2.0000      -0.909645       -24.7527
   7   2.0000      -0.770424       -20.9643
   8   2.0000      -0.675698       -18.3867
   9   2.0000      -0.629707       -17.1352
  10   2.0000      -0.623672       -16.9710
  11   2.0000      -0.539779       -14.6881
  12   2.0000      -0.524794       -14.2804
  13   2.0000      -0.517643       -14.0858
  14   2.0000      -0.486038       -13.2258
  15   2.0000      -0.416534       -11.3345
  16   0.0000       0.154896         4.2149
  17   0.0000       0.178502         4.8573
  18   0.0000       0.210086         5.7167
  19   0.0000       0.233901         6.3648
  20   0.0000       0.244642         6.6571

MULLIKEN ATOMIC CHARGES
-----------------------
   0 C :   -0.032898
   1 C :   -0.158993
   2 C :    0.256329
   3 O :   -0.324176
   4 H :    0.021211
   5 H :    0.053719
   6 H :    0.053714
   7 H :    0.033053
   8 H :    0.049019
   9 H :    0.049022
Sum of atomic charges:   -0.0000000

LOEWDIN ATOMIC CHARGES
----------------------
   0 C :   -0.045351
   1 C :   -0.073688
   2 C :    0.045292
   3 O :   -0.085732
   4 H :    0.001574
   5 H :    0.037256
   6 H :    0.037254
   7 H :    0.024392
   8 H :    0.029502
   9 H :    0.029502

  Mayer bond orders larger than 0.1
B(  0-C ,  1-C ) :   1.0487 B(  0-C ,  7-H ) :   0.9820 B(  0-C ,  8-H ) :   0.9805
B(  0-C ,  9-H ) :   0.9805 B(  1-C ,  2-C ) :   1.0069 B(  1-C ,  5-H ) :   0.9558
B(  1-C ,  6-H ) :   0.9558 B(  2-C ,  3-O ) :   2.1102 B(  2-C ,  4-H ) :   0.9623

E(0)                                       ...   -191.966903856
E(0)                                       ...   -191.966903856
E(CORR)(strong-pairs)                      ...     -0.642178694
E(CORR)(weak-pairs)                        ...     -0.000126331
E(CORR)(corrected)                         ...     -0.642305026
E(TOT)                                     ...   -192.609208882
E(CCSD(T))                                 ...   -192.627936500
FINAL SINGLE POINT ENERGY      -192.627936500320

DIPOLE MOMENT
-------------
                                X             Y             Z
Electronic contribution:      4.42294      -0.68883       0.00005
Nuclear contribution   :     -5.06605       1.65822      -0.00007
                        -----------------------------------------
Total Dipole Moment    :     -0.64310       0.96939      -0.00002
                        -----------------------------------------
Magnitude (a.u.)       :      1.16331
Magnitude (Debye)      :      2.95690

Rotational constants in cm-1:     0.558435     0.192808     0.151286
Rotational constants in MHz : 16741.467958  5780.234919  4535.445630

                             ****ORCA TERMINATED NORMALLY****
TOTAL RUN TIME: 0 days 0 hours 0 minutes 25 seconds 186 msec
