                         Program Version 4.1.x  -  STABLE  -
|  1> ! RHF DLPNO-CCSD(T) cc-pVDZ RIJK cc-pVTZ/JK cc-pVDZ/C
|  2> ! KDIIS SOSCF TightSCF TightPNO
|  3>
|  4> %pal nprocs 4 end
|  5>
|  6> %maxcore 8000
|  7>
|  8> %scf maxiter 300
|  9>      shift shift 0.2 erroff 0.1 end
| 10> end
| 11>
| 12> * xyzfile 0 1 propen_3_ol_skew_g_plus.xyz
| 13>
| 14>
| 15>                          ****END OF INPUT****

CARTESIAN COORDINATES (ANGSTROEM)
---------------------------------
  C     -1.808020    0.030620   -0.256030
  C     -0.665130   -0.297940    0.354410
  C      0.602950    0.503920    0.261040
  O      1.700350   -0.271290   -0.235810
  H     -2.703350   -0.577000   -0.161240
  H     -1.888830    0.928520   -0.865700
  H     -0.606210   -1.204920    0.955970
  H      0.441590    1.400290   -0.355720
  H      0.923960    0.834840    1.254680
  H      1.451260   -0.631020   -1.098010

 Total Charge           Charge          ....    0
 Multiplicity           Mult            ....    1
 Number of Electrons    NEL             ....   32
 Basis Dimension        Dim             ....   86

ORBITAL ENERGIES
----------------

  NO   OCC          E(Eh)            E(eV)
   0   2.0000     -20.552976      -559.2749
   1   2.0000     -11.284831      -307.0759
   2   2.0000     -11.242987      -305.9372
   3   2.0000     -11.240891      -305.8802
   4   2.0000      -1.350633       -36.7526
   5   2.0000      -1.062612       -28.9151
   6   2.0000      -0.918029       -24.9808
   7   2.0000      -0.773389       -21.0450
   8   2.0000      -0.692929       -18.8556
   9   2.0000      -0.617922       -16.8145
  10   2.0000      -0.609750       -16.5921
  11   2.0000      -0.595544       -16.2056
  12   2.0000      -0.527196       -14.3457
  13   2.0000      -0.489020       -13.3069
  14   2.0000      -0.446155       -12.1405
  15   2.0000      -0.373556       -10.1650
  16   0.0000       0.154765         4.2114
  17   0.0000       0.195523         5.3204
  18   0.0000       0.213163         5.8005
  19   0.0000       0.225562         6.1378
  20   0.0000       0.233754         6.3608

MULLIKEN ATOMIC CHARGES
-----------------------
   0 C :   -0.028101
   1 C :   -0.201400
   2 C :    0.267755
   3 O :   -0.398710
   4 H :    0.053014
   5 H :    0.042919
   6 H :    0.036712
   7 H :    0.017910
   8 H :    0.046531
   9 H :    0.163369
Sum of atomic charges:    0.0000000

LOEWDIN ATOMIC CHARGES
----------------------
   0 C :   -0.049778
   1 C :   -0.046366
   2 C :    0.023636
   3 O :   -0.085279
   4 H :    0.025866
   5 H :    0.021146
   6 H :    0.026629
   7 H :    0.011163
   8 H :    0.026989
   9 H :    0.045996

  Mayer bond orders larger than 0.1
B(  0-C ,  1-C ) :   1.9856 B(  0-C ,  4-H ) :   0.9707 B(  0-C ,  5-H ) :   0.9677
B(  1-C ,  2-C ) :   1.0480 B(  1-C ,  6-H ) :   0.9731 B(  2-C ,  3-O ) :   0.9687
B(  2-C ,  7-H ) :   0.9719 B(  2-C ,  8-H ) :   0.9640 B(  3-O ,  9-H ) :   0.9995

E(0)                                       ...   -191.937858040
E(0)                                       ...   -191.937858040
E(CORR)(strong-pairs)                      ...     -0.640490292
E(CORR)(weak-pairs)                        ...     -0.000123538
E(CORR)(corrected)                         ...     -0.640613830
E(TOT)                                     ...   -192.578471871
E(CCSD(T))                                 ...   -192.596777566
FINAL SINGLE POINT ENERGY      -192.596777566132

DIPOLE MOMENT
-------------
                                X             Y             Z
Electronic contribution:      1.84387      -0.69039      -0.00501
Nuclear contribution   :     -2.43661       0.77237      -0.28325
                        -----------------------------------------
Total Dipole Moment    :     -0.59274       0.08198      -0.28826
                        -----------------------------------------
Magnitude (a.u.)       :      0.66420
Magnitude (Debye)      :      1.68825

Rotational constants in cm-1:     0.857386     0.142719     0.139531
Rotational constants in MHz : 25703.796911  4278.616173  4183.032378

                             ****ORCA TERMINATED NORMALLY****
TOTAL RUN TIME: 0 days 0 hours 0 minutes 23 seconds 605 msec
