                         Program Version 4.1.x  -  STABLE  -
|  1> ! RHF DLPNO-CCSD(T) cc-pVDZ RIJK cc-pVTZ/JK cc-pVDZ/C
|  2> ! KDIIS SOSCF TightSCF TightPNO
|  3>
|  4> %pal nprocs 4 end
|  5>
|  6> %maxcore 8000
|  7>
|  8> %scf maxiter 300
|  9>      shift shift 0.2 erroff 0.1 end
| 10> end
| 11>
| 12> * xyzfile 0 1 propene_H_H_ecl.xyz
| 13>
| 14>
| 15>                          ****END OF INPUT****

CARTESIAN COORDINATES (ANGSTROEM)
---------------------------------
  C      1.227650   -0.164910    0.000000
  C     -0.133160    0.476660    0.000000
  C     -1.271320   -0.231170    0.000000
  H      1.358650   -0.800860   -0.905020
  H      2.033940    0.603910   -0.000010
  H      1.358630   -0.800850    0.905040
  H     -0.182190    1.579490   -0.000010
  H     -2.254230    0.267620    0.000000
  H     -1.253820   -1.332750   -0.000020

 Total Charge           Charge          ....    0
 Multiplicity           Mult            ....    1
 Number of Electrons    NEL             ....   24
 Basis Dimension        Dim             ....   72

ORBITAL ENERGIES
----------------

  NO   OCC          E(Eh)            E(eV)
   0   2.0000     -11.239626      -305.8458
   1   2.0000     -11.233917      -305.6904
   2   2.0000     -11.227041      -305.5033
   3   2.0000      -1.058742       -28.8098
   4   2.0000      -0.923068       -25.1180
   5   2.0000      -0.747897       -20.3513
   6   2.0000      -0.629154       -17.1202
   7   2.0000      -0.575669       -15.6648
   8   2.0000      -0.562645       -15.3104
   9   2.0000      -0.513729       -13.9793
  10   2.0000      -0.483935       -13.1685
  11   2.0000      -0.352885        -9.6025
  12   0.0000       0.163514         4.4494
  13   0.0000       0.192623         5.2415
  14   0.0000       0.215518         5.8645
  15   0.0000       0.232734         6.3330
  16   0.0000       0.274952         7.4818

MULLIKEN ATOMIC CHARGES
-----------------------
   0 C :   -0.032707
   1 C :   -0.188528
   2 C :   -0.056318
   3 H :    0.056142
   4 H :    0.040998
   5 H :    0.056144
   6 H :    0.036265
   7 H :    0.049787
   8 H :    0.038218
Sum of atomic charges:   -0.0000000

LOEWDIN ATOMIC CHARGES
----------------------
   0 C :   -0.061021
   1 C :   -0.039167
   2 C :   -0.069741
   3 H :    0.034796
   4 H :    0.028601
   5 H :    0.034798
   6 H :    0.025816
   7 H :    0.025044
   8 H :    0.020875

  Mayer bond orders larger than 0.1
B(  0-C ,  1-C ) :   1.0398 B(  0-C ,  3-H ) :   0.9757 B(  0-C ,  4-H ) :   0.9836
B(  0-C ,  5-H ) :   0.9757 B(  1-C ,  2-C ) :   2.0102 B(  1-C ,  6-H ) :   0.9761
B(  2-C ,  7-H ) :   0.9728 B(  2-C ,  8-H ) :   0.9722

E(0)                                       ...   -117.076516934
E(0)                                       ...   -117.076516934
E(CORR)(strong-pairs)                      ...     -0.462858459
E(CORR)(weak-pairs)                        ...     -0.000063767
E(CORR)(corrected)                         ...     -0.462922227
E(TOT)                                     ...   -117.539439161
E(CCSD(T))                                 ...   -117.553780775
FINAL SINGLE POINT ENERGY      -117.553780774622

DIPOLE MOMENT
-------------
                                X             Y             Z
Electronic contribution:     -1.00181       0.52727       0.00001
Nuclear contribution   :      1.13644      -0.51783      -0.00002
                        -----------------------------------------
Total Dipole Moment    :      0.13462       0.00944      -0.00001
                        -----------------------------------------
Magnitude (a.u.)       :      0.13495
Magnitude (Debye)      :      0.34302

Rotational constants in cm-1:     1.481276     0.312265     0.271621
Rotational constants in MHz : 44407.551298  9361.458032  8142.996800

                             ****ORCA TERMINATED NORMALLY****
TOTAL RUN TIME: 0 days 0 hours 0 minutes 14 seconds 848 msec
