                         Program Version 4.1.x  -  STABLE  -
|  1> ! RHF DLPNO-CCSD(T) cc-pVDZ RIJK cc-pVTZ/JK cc-pVDZ/C
|  2> ! KDIIS SOSCF TightSCF TightPNO
|  3>
|  4> %pal nprocs 4 end
|  5>
|  6> %maxcore 8000
|  7>
|  8> %scf maxiter 300
|  9>      shift shift 0.2 erroff 0.1 end
| 10> end
| 11>
| 12> * xyzfile 0 1 propene_H_H_anti.xyz
| 13>
| 14>
| 15>                          ****END OF INPUT****

CARTESIAN COORDINATES (ANGSTROEM)
---------------------------------
  C      1.232560    0.164380    0.000000
  C     -0.133230   -0.467540   -0.000010
  C     -1.278600    0.228840    0.000000
  H      1.183990    1.277130   -0.000100
  H      1.800900   -0.153920    0.903440
  H      1.800990   -0.154090   -0.903320
  H     -0.174850   -1.570730    0.000010
  H     -2.254880   -0.282870    0.000000
  H     -1.280550    1.330440   -0.000010

 Total Charge           Charge          ....    0
 Multiplicity           Mult            ....    1
 Number of Electrons    NEL             ....   24
 Basis Dimension        Dim             ....   72

ORBITAL ENERGIES
----------------

  NO   OCC          E(Eh)            E(eV)
   0   2.0000     -11.241134      -305.8868
   1   2.0000     -11.235585      -305.7358
   2   2.0000     -11.228318      -305.5381
   3   2.0000      -1.058779       -28.8108
   4   2.0000      -0.924496       -25.1568
   5   2.0000      -0.749289       -20.3892
   6   2.0000      -0.629089       -17.1184
   7   2.0000      -0.575989       -15.6735
   8   2.0000      -0.562547       -15.3077
   9   2.0000      -0.512669       -13.9504
  10   2.0000      -0.486817       -13.2470
  11   2.0000      -0.355252        -9.6669
  12   0.0000       0.176464         4.8018
  13   0.0000       0.192538         5.2392
  14   0.0000       0.218486         5.9453
  15   0.0000       0.231337         6.2950
  16   0.0000       0.264552         7.1988

MULLIKEN ATOMIC CHARGES
-----------------------
   0 C :   -0.022037
   1 C :   -0.181606
   2 C :   -0.056076
   3 H :    0.038606
   4 H :    0.048067
   5 H :    0.048063
   6 H :    0.033905
   7 H :    0.048970
   8 H :    0.042108
Sum of atomic charges:   -0.0000000

LOEWDIN ATOMIC CHARGES
----------------------
   0 C :   -0.056278
   1 C :   -0.035761
   2 C :   -0.072760
   3 H :    0.029422
   4 H :    0.031526
   5 H :    0.031524
   6 H :    0.026531
   7 H :    0.024573
   8 H :    0.021223

  Mayer bond orders larger than 0.1
B(  0-C ,  1-C ) :   1.0542 B(  0-C ,  3-H ) :   0.9807 B(  0-C ,  4-H ) :   0.9726
B(  0-C ,  5-H ) :   0.9726 B(  1-C ,  2-C ) :   2.0034 B(  1-C ,  6-H ) :   0.9738
B(  2-C ,  7-H ) :   0.9722 B(  2-C ,  8-H ) :   0.9683

E(0)                                       ...   -117.080270670
E(0)                                       ...   -117.080270670
E(CORR)(strong-pairs)                      ...     -0.462404667
E(CORR)(weak-pairs)                        ...     -0.000062955
E(CORR)(corrected)                         ...     -0.462467623
E(TOT)                                     ...   -117.542738292
E(CCSD(T))                                 ...   -117.557073731
FINAL SINGLE POINT ENERGY      -117.557073731201

DIPOLE MOMENT
-------------
                                X             Y             Z
Electronic contribution:     -1.01609      -0.51181      -0.00002
Nuclear contribution   :      1.15210       0.47767       0.00003
                        -----------------------------------------
Total Dipole Moment    :      0.13601      -0.03414       0.00001
                        -----------------------------------------
Magnitude (a.u.)       :      0.14023
Magnitude (Debye)      :      0.35643

Rotational constants in cm-1:     1.496772     0.309453     0.269948
Rotational constants in MHz : 44872.096342  9277.167960  8092.832028

                             ****ORCA TERMINATED NORMALLY****
TOTAL RUN TIME: 0 days 0 hours 0 minutes 21 seconds 549 msec
