                         Program Version 4.1.x  -  STABLE  -
|  1> ! RHF DLPNO-CCSD(T) cc-pVDZ RIJK cc-pVTZ/JK cc-pVDZ/C
|  2> ! KDIIS SOSCF TightSCF TightPNO
|  3>
|  4> %pal nprocs 4 end
|  5>
|  6> %maxcore 8000
|  7>
|  8> %scf maxiter 300
|  9>      shift shift 0.2 erroff 0.1 end
| 10> end
| 11>
| 12> * xyzfile 0 1 propen_3_ol_skew_a.xyz
| 13>
| 14>
| 15>                          ****END OF INPUT****

CARTESIAN COORDINATES (ANGSTROEM)
---------------------------------
  C     -1.841190    0.076440   -0.217700
  C     -0.671240   -0.361140    0.253580
  C      0.586230    0.454760    0.286690
  O      1.632860   -0.300470   -0.336920
  H     -2.732660   -0.543120   -0.192040
  H     -1.948480    1.071500   -0.644070
  H     -0.584030   -1.367180    0.662090
  H      0.429580    1.413250   -0.228960
  H      0.852710    0.671280    1.333670
  H      2.477230    0.137710   -0.170710

 Total Charge           Charge          ....    0
 Multiplicity           Mult            ....    1
 Number of Electrons    NEL             ....   32
 Basis Dimension        Dim             ....   86

ORBITAL ENERGIES
----------------

  NO   OCC          E(Eh)            E(eV)
   0   2.0000     -20.552457      -559.2608
   1   2.0000     -11.286027      -307.1084
   2   2.0000     -11.237736      -305.7944
   3   2.0000     -11.232749      -305.6586
   4   2.0000      -1.350288       -36.7432
   5   2.0000      -1.059008       -28.8171
   6   2.0000      -0.915146       -24.9024
   7   2.0000      -0.763122       -20.7656
   8   2.0000      -0.685259       -18.6468
   9   2.0000      -0.650760       -17.7081
  10   2.0000      -0.608837       -16.5673
  11   2.0000      -0.561931       -15.2909
  12   2.0000      -0.531398       -14.4601
  13   2.0000      -0.482056       -13.1174
  14   2.0000      -0.448509       -12.2045
  15   2.0000      -0.365866        -9.9557
  16   0.0000       0.157843         4.2951
  17   0.0000       0.195286         5.3140
  18   0.0000       0.214328         5.8322
  19   0.0000       0.221979         6.0404
  20   0.0000       0.250306         6.8112

MULLIKEN ATOMIC CHARGES
-----------------------
   0 C :   -0.032013
   1 C :   -0.156032
   2 C :    0.237791
   3 O :   -0.389707
   4 H :    0.050362
   5 H :    0.039746
   6 H :    0.037069
   7 H :    0.020133
   8 H :    0.027185
   9 H :    0.165466
Sum of atomic charges:   -0.0000000

LOEWDIN ATOMIC CHARGES
----------------------
   0 C :   -0.051056
   1 C :   -0.028718
   2 C :    0.023997
   3 O :   -0.088983
   4 H :    0.025213
   5 H :    0.020380
   6 H :    0.027774
   7 H :    0.011198
   8 H :    0.012681
   9 H :    0.047513

  Mayer bond orders larger than 0.1
B(  0-C ,  1-C ) :   2.0034 B(  0-C ,  4-H ) :   0.9706 B(  0-C ,  5-H ) :   0.9670
B(  1-C ,  2-C ) :   1.0503 B(  1-C ,  6-H ) :   0.9720 B(  2-C ,  3-O ) :   0.9948
B(  2-C ,  7-H ) :   0.9665 B(  2-C ,  8-H ) :   0.9627 B(  3-O ,  9-H ) :   0.9984

E(0)                                       ...   -191.935642632
E(0)                                       ...   -191.935642632
E(CORR)(strong-pairs)                      ...     -0.640100754
E(CORR)(weak-pairs)                        ...     -0.000123944
E(CORR)(corrected)                         ...     -0.640224698
E(TOT)                                     ...   -192.575867330
E(CCSD(T))                                 ...   -192.594018504
FINAL SINGLE POINT ENERGY      -192.594018503942

DIPOLE MOMENT
-------------
                                X             Y             Z
Electronic contribution:      1.67306      -0.86896      -0.39271
Nuclear contribution   :     -1.53134       1.42661       0.78089
                        -----------------------------------------
Total Dipole Moment    :      0.14171       0.55765       0.38817
                        -----------------------------------------
Magnitude (a.u.)       :      0.69407
Magnitude (Debye)      :      1.76419

Rotational constants in cm-1:     0.926216     0.142325     0.136783
Rotational constants in MHz : 27767.265780  4266.787621  4100.650826

                             ****ORCA TERMINATED NORMALLY****
TOTAL RUN TIME: 0 days 0 hours 0 minutes 23 seconds 402 msec
