                         Program Version 4.1.x  -  STABLE  -
|  1> ! RHF DLPNO-CCSD(T) cc-pVDZ RIJK cc-pVTZ/JK cc-pVDZ/C
|  2> ! KDIIS SOSCF TightSCF TightPNO
|  3>
|  4> %pal nprocs 4 end
|  5>
|  6> %maxcore 8000
|  7>
|  8> %scf maxiter 300
|  9>      shift shift 0.2 erroff 0.1 end
| 10> end
| 11>
| 12> * xyzfile 0 1 propylamine_a.xyz
| 13>
| 14>
| 15>                          ****END OF INPUT****

CARTESIAN COORDINATES (ANGSTROEM)
---------------------------------
  C      1.930490   -0.132920    0.023370
  C      0.545930    0.518630   -0.060010
  C     -0.597550   -0.494240    0.029990
  N     -1.899960    0.174320   -0.086530
  H     -2.061760    0.793450    0.704200
  H     -0.485720   -1.080710    0.959790
  H     -0.516140   -1.205350   -0.801830
  H      0.441930    1.077020   -0.997960
  H      0.437510    1.253160    0.751280
  H     -2.660050   -0.499820   -0.101750
  H      2.725970    0.617050   -0.038850
  H      2.061370   -0.677630    0.966050
  H      2.083350   -0.846210   -0.795350

 Total Charge           Charge          ....    0
 Multiplicity           Mult            ....    1
 Number of Electrons    NEL             ....   34
 Basis Dimension        Dim             ....  101

ORBITAL ENERGIES
----------------

  NO   OCC          E(Eh)            E(eV)
   0   2.0000     -15.534823      -422.7240
   1   2.0000     -11.247658      -306.0643
   2   2.0000     -11.220013      -305.3121
   3   2.0000     -11.219239      -305.2910
   4   2.0000      -1.166958       -31.7545
   5   2.0000      -1.031276       -28.0625
   6   2.0000      -0.894551       -24.3420
   7   2.0000      -0.794731       -21.6257
   8   2.0000      -0.653215       -17.7749
   9   2.0000      -0.622641       -16.9429
  10   2.0000      -0.596944       -16.2437
  11   2.0000      -0.560852       -15.2616
  12   2.0000      -0.525693       -14.3048
  13   2.0000      -0.489456       -13.3188
  14   2.0000      -0.473753       -12.8915
  15   2.0000      -0.465536       -12.6679
  16   2.0000      -0.380652       -10.3581
  17   0.0000       0.184964         5.0331
  18   0.0000       0.197595         5.3768
  19   0.0000       0.220281         5.9942
  20   0.0000       0.236079         6.4240
  21   0.0000       0.262430         7.1411

MULLIKEN ATOMIC CHARGES
-----------------------
   0 C :   -0.049375
   1 C :   -0.093395
   2 C :    0.077965
   3 N :   -0.296823
   4 H :    0.091037
   5 H :    0.007333
   6 H :    0.027822
   7 H :    0.035845
   8 H :    0.018380
   9 H :    0.091799
  10 H :    0.032334
  11 H :    0.027418
  12 H :    0.029661
Sum of atomic charges:    0.0000000

LOEWDIN ATOMIC CHARGES
----------------------
   0 C :   -0.054111
   1 C :   -0.043170
   2 C :   -0.017510
   3 N :   -0.067960
   4 H :    0.033712
   5 H :   -0.001936
   6 H :    0.015733
   7 H :    0.021895
   8 H :    0.015142
   9 H :    0.036036
  10 H :    0.023137
  11 H :    0.018940
  12 H :    0.020091

  Mayer bond orders larger than 0.1
B(  0-C ,  1-C ) :   1.0613 B(  0-C , 10-H ) :   0.9840 B(  0-C , 11-H ) :   0.9799
B(  0-C , 12-H ) :   0.9810 B(  1-C ,  2-C ) :   1.0413 B(  1-C ,  7-H ) :   0.9667
B(  1-C ,  8-H ) :   0.9686 B(  2-C ,  3-N ) :   1.0439 B(  2-C ,  5-H ) :   0.9684
B(  2-C ,  6-H ) :   0.9674 B(  3-N ,  4-H ) :   0.9869 B(  3-N ,  9-H ) :   0.9859

E(0)                                       ...   -173.299248140
E(0)                                       ...   -173.299248140
E(CORR)(strong-pairs)                      ...     -0.668038616
E(CORR)(weak-pairs)                        ...     -0.000158102
E(CORR)(corrected)                         ...     -0.668196718
E(TOT)                                     ...   -173.967444858
E(CCSD(T))                                 ...   -173.985088988
FINAL SINGLE POINT ENERGY      -173.985088988085

DIPOLE MOMENT
-------------
                                X             Y             Z
Electronic contribution:     -2.22679       0.37425      -0.28489
Nuclear contribution   :      2.17701      -0.61359       0.69683
                        -----------------------------------------
Total Dipole Moment    :     -0.04979      -0.23934       0.41194
                        -----------------------------------------
Magnitude (a.u.)       :      0.47902
Magnitude (Debye)      :      1.21757

Rotational constants in cm-1:     0.841467     0.123074     0.115258
Rotational constants in MHz : 25226.558443  3689.668810  3455.350376

                             ****ORCA TERMINATED NORMALLY****
TOTAL RUN TIME: 0 days 0 hours 0 minutes 30 seconds 232 msec
