                         Program Version 4.1.x  -  STABLE  -
|  1> ! RHF DLPNO-CCSD(T) cc-pVDZ RIJK cc-pVTZ/JK cc-pVDZ/C
|  2> ! KDIIS SOSCF TightSCF TightPNO
|  3>
|  4> %pal nprocs 4 end
|  5>
|  6> %maxcore 8000
|  7>
|  8> %scf maxiter 300
|  9>      shift shift 0.2 erroff 0.1 end
| 10> end
| 11>
| 12> * xyzfile 0 1 propane_low.xyz
| 13>
| 14>
| 15>                          ****END OF INPUT****

CARTESIAN COORDINATES (ANGSTROEM)
---------------------------------
  C      1.269570   -0.264230    0.000000
  C      0.000000    0.596880    0.000000
  C     -1.269570   -0.264230    0.000000
  H      2.184830    0.372150    0.000000
  H      1.310990   -0.918200    0.901390
  H      1.310980   -0.918210   -0.901390
  H      0.000000    1.258980    0.899210
  H     -0.000010    1.258990   -0.899200
  H     -2.184820    0.372160    0.000000
  H     -1.310990   -0.918200   -0.901390
  H     -1.310990   -0.918210    0.901390

 Total Charge           Charge          ....    0
 Multiplicity           Mult            ....    1
 Number of Electrons    NEL             ....   26
 Basis Dimension        Dim             ....   82

ORBITAL ENERGIES
----------------

  NO   OCC          E(Eh)            E(eV)
   0   2.0000     -11.229874      -305.5804
   1   2.0000     -11.224883      -305.4446
   2   2.0000     -11.224835      -305.4433
   3   2.0000      -1.047604       -28.5068
   4   2.0000      -0.917241       -24.9594
   5   2.0000      -0.791225       -21.5303
   6   2.0000      -0.617600       -16.8057
   7   2.0000      -0.590144       -16.0586
   8   2.0000      -0.543801       -14.7976
   9   2.0000      -0.524280       -14.2664
  10   2.0000      -0.471709       -12.8359
  11   2.0000      -0.469545       -12.7770
  12   2.0000      -0.464027       -12.6268
  13   0.0000       0.180647         4.9157
  14   0.0000       0.227687         6.1957
  15   0.0000       0.230527         6.2730
  16   0.0000       0.231320         6.2945
  17   0.0000       0.262244         7.1360

MULLIKEN ATOMIC CHARGES
-----------------------
   0 C :   -0.071792
   1 C :   -0.121349
   2 C :   -0.071792
   3 H :    0.034250
   4 H :    0.033231
   5 H :    0.033231
   6 H :    0.031755
   7 H :    0.031756
   8 H :    0.034249
   9 H :    0.033231
  10 H :    0.033231
Sum of atomic charges:    0.0000000

LOEWDIN ATOMIC CHARGES
----------------------
   0 C :   -0.061120
   1 C :   -0.051708
   2 C :   -0.061119
   3 H :    0.023043
   4 H :    0.021422
   5 H :    0.021423
   6 H :    0.021085
   7 H :    0.021085
   8 H :    0.023043
   9 H :    0.021422
  10 H :    0.021423

  Mayer bond orders larger than 0.1
B(  0-C ,  1-C ) :   1.0529 B(  0-C ,  3-H ) :   0.9850 B(  0-C ,  4-H ) :   0.9815
B(  0-C ,  5-H ) :   0.9815 B(  1-C ,  2-C ) :   1.0529 B(  1-C ,  6-H ) :   0.9712
B(  1-C ,  7-H ) :   0.9712 B(  2-C ,  8-H ) :   0.9850 B(  2-C ,  9-H ) :   0.9815
B(  2-C , 10-H ) :   0.9815

E(0)                                       ...   -118.269951232
E(0)                                       ...   -118.269951232
E(CORR)(strong-pairs)                      ...     -0.497970969
E(CORR)(weak-pairs)                        ...     -0.000090637
E(CORR)(corrected)                         ...     -0.498061605
E(TOT)                                     ...   -118.768012837
E(CCSD(T))                                 ...   -118.781132212
FINAL SINGLE POINT ENERGY      -118.781132211940

DIPOLE MOMENT
-------------
                                X             Y             Z
Electronic contribution:      0.00001       0.48035      -0.00001
Nuclear contribution   :     -0.00001      -0.45460       0.00001
                        -----------------------------------------
Total Dipole Moment    :     -0.00000       0.02576       0.00000
                        -----------------------------------------
Magnitude (a.u.)       :      0.02576
Magnitude (Debye)      :      0.06547

Rotational constants in cm-1:     0.950657     0.280130     0.247548
Rotational constants in MHz : 28499.982598  8398.078359  7421.308808

                             ****ORCA TERMINATED NORMALLY****
TOTAL RUN TIME: 0 days 0 hours 0 minutes 14 seconds 574 msec
