                         Program Version 4.1.x  -  STABLE  -
|  1> ! RHF DLPNO-CCSD(T) cc-pVDZ RIJK cc-pVTZ/JK cc-pVDZ/C
|  2> ! KDIIS SOSCF TightSCF TightPNO
|  3>
|  4> %pal nprocs 4 end
|  5>
|  6> %maxcore 8000
|  7>
|  8> %scf maxiter 300
|  9>      shift shift 0.2 erroff 0.1 end
| 10> end
| 11>
| 12> * xyzfile 0 1 propylamine_g.xyz
| 13>
| 14>
| 15>                          ****END OF INPUT****

CARTESIAN COORDINATES (ANGSTROEM)
---------------------------------
  C      1.579110   -0.537180    0.129550
  C      0.669330    0.614240   -0.312070
  C     -0.730900    0.572960    0.312140
  N     -1.471240   -0.621810   -0.117690
  H     -1.702690   -0.567230   -1.106780
  H     -1.254380    1.516170    0.078300
  H     -0.637420    0.525750    1.404660
  H      0.568640    0.609190   -1.407480
  H      1.131860    1.576590   -0.055510
  H     -2.345270   -0.716920    0.391170
  H      2.555290   -0.482030   -0.364780
  H      1.751580   -0.504990    1.212340
  H      1.125810   -1.503980   -0.105780

 Total Charge           Charge          ....    0
 Multiplicity           Mult            ....    1
 Number of Electrons    NEL             ....   34
 Basis Dimension        Dim             ....  101

ORBITAL ENERGIES
----------------

  NO   OCC          E(Eh)            E(eV)
   0   2.0000     -15.536039      -422.7571
   1   2.0000     -11.248490      -306.0870
   2   2.0000     -11.220169      -305.3163
   3   2.0000     -11.209447      -305.0246
   4   2.0000      -1.167933       -31.7811
   5   2.0000      -1.024826       -27.8869
   6   2.0000      -0.897321       -24.4173
   7   2.0000      -0.786891       -21.4124
   8   2.0000      -0.654593       -17.8124
   9   2.0000      -0.621136       -16.9020
  10   2.0000      -0.596996       -16.2451
  11   2.0000      -0.552540       -15.0354
  12   2.0000      -0.524163       -14.2632
  13   2.0000      -0.487776       -13.2731
  14   2.0000      -0.469732       -12.7821
  15   2.0000      -0.463757       -12.6195
  16   2.0000      -0.380264       -10.3475
  17   0.0000       0.181776         4.9464
  18   0.0000       0.215970         5.8768
  19   0.0000       0.222365         6.0509
  20   0.0000       0.233781         6.3615
  21   0.0000       0.265161         7.2154

MULLIKEN ATOMIC CHARGES
-----------------------
   0 C :   -0.041400
   1 C :   -0.087542
   2 C :    0.068592
   3 N :   -0.295391
   4 H :    0.091266
   5 H :    0.010978
   6 H :    0.027411
   7 H :    0.018310
   8 H :    0.020875
   9 H :    0.093544
  10 H :    0.024474
  11 H :    0.023266
  12 H :    0.045619
Sum of atomic charges:   -0.0000000

LOEWDIN ATOMIC CHARGES
----------------------
   0 C :   -0.053040
   1 C :   -0.044664
   2 C :   -0.016935
   3 N :   -0.067371
   4 H :    0.033880
   5 H :    0.001006
   6 H :    0.015474
   7 H :    0.015377
   8 H :    0.019070
   9 H :    0.036306
  10 H :    0.019019
  11 H :    0.018119
  12 H :    0.023760

  Mayer bond orders larger than 0.1
B(  0-C ,  1-C ) :   1.0520 B(  0-C , 10-H ) :   0.9841 B(  0-C , 11-H ) :   0.9816
B(  0-C , 12-H ) :   0.9790 B(  1-C ,  2-C ) :   1.0484 B(  1-C ,  7-H ) :   0.9682
B(  1-C ,  8-H ) :   0.9715 B(  2-C ,  3-N ) :   1.0317 B(  2-C ,  5-H ) :   0.9748
B(  2-C ,  6-H ) :   0.9688 B(  3-N ,  4-H ) :   0.9869 B(  3-N ,  9-H ) :   0.9871

E(0)                                       ...   -173.299158477
E(0)                                       ...   -173.299158477
E(CORR)(strong-pairs)                      ...     -0.668555266
E(CORR)(weak-pairs)                        ...     -0.000159243
E(CORR)(corrected)                         ...     -0.668714509
E(TOT)                                     ...   -173.967872986
E(CCSD(T))                                 ...   -173.985582394
FINAL SINGLE POINT ENERGY      -173.985582393983

DIPOLE MOMENT
-------------
                                X             Y             Z
Electronic contribution:     -1.64591      -0.13096      -0.14506
Nuclear contribution   :      1.27984       0.48491       0.04909
                        -----------------------------------------
Total Dipole Moment    :     -0.36606       0.35395      -0.09597
                        -----------------------------------------
Magnitude (a.u.)       :      0.51817
Magnitude (Debye)      :      1.31707

Rotational constants in cm-1:     0.466125     0.160788     0.138726
Rotational constants in MHz : 13974.064908  4820.310294  4158.912299

                             ****ORCA TERMINATED NORMALLY****
TOTAL RUN TIME: 0 days 0 hours 0 minutes 43 seconds 671 msec
