                         Program Version 4.1.x  -  STABLE  -
|  1> ! RHF DLPNO-CCSD(T) cc-pVDZ RIJK cc-pVTZ/JK cc-pVDZ/C
|  2> ! KDIIS SOSCF TightSCF TightPNO
|  3>
|  4> %pal nprocs 4 end
|  5>
|  6> %maxcore 8000
|  7>
|  8> %scf maxiter 300
|  9>      shift shift 0.2 erroff 0.1 end
| 10> end
| 11>
| 12> * xyzfile 0 1 propen_3_ol_syn_a.xyz
| 13>
| 14>
| 15>                          ****END OF INPUT****

CARTESIAN COORDINATES (ANGSTROEM)
---------------------------------
  C     -1.516830   -0.531790    0.000010
  C     -0.782550    0.582530   -0.000020
  C      0.717030    0.634920    0.000020
  O      1.259850   -0.680820   -0.000040
  H     -2.601690   -0.486590    0.000000
  H     -1.051350   -1.511870    0.000060
  H     -1.266850    1.558970   -0.000060
  H      1.056220    1.197540   -0.885920
  H      1.056180    1.197440    0.886050
  H      2.222780   -0.622840    0.000130

 Total Charge           Charge          ....    0
 Multiplicity           Mult            ....    1
 Number of Electrons    NEL             ....   32
 Basis Dimension        Dim             ....   86

ORBITAL ENERGIES
----------------

  NO   OCC          E(Eh)            E(eV)
   0   2.0000     -20.555535      -559.3445
   1   2.0000     -11.287234      -307.1413
   2   2.0000     -11.234035      -305.6936
   3   2.0000     -11.221711      -305.3583
   4   2.0000      -1.356181       -36.9036
   5   2.0000      -1.051566       -28.6146
   6   2.0000      -0.918982       -25.0068
   7   2.0000      -0.748970       -20.3805
   8   2.0000      -0.700954       -19.0739
   9   2.0000      -0.628184       -17.0938
  10   2.0000      -0.607454       -16.5297
  11   2.0000      -0.586320       -15.9546
  12   2.0000      -0.510070       -13.8797
  13   2.0000      -0.486234       -13.2311
  14   2.0000      -0.454120       -12.3572
  15   2.0000      -0.354139        -9.6366
  16   0.0000       0.177469         4.8292
  17   0.0000       0.179497         4.8844
  18   0.0000       0.219212         5.9651
  19   0.0000       0.233186         6.3453
  20   0.0000       0.261226         7.1083

MULLIKEN ATOMIC CHARGES
-----------------------
   0 C :   -0.009910
   1 C :   -0.213425
   2 C :    0.257316
   3 O :   -0.382425
   4 H :    0.042466
   5 H :    0.059942
   6 H :    0.026290
   7 H :    0.026556
   8 H :    0.026557
   9 H :    0.166634
Sum of atomic charges:    0.0000000

LOEWDIN ATOMIC CHARGES
----------------------
   0 C :   -0.047303
   1 C :   -0.047503
   2 C :    0.018250
   3 O :   -0.076093
   4 H :    0.022274
   5 H :    0.026961
   6 H :    0.025030
   7 H :    0.014002
   8 H :    0.014004
   9 H :    0.050378

  Mayer bond orders larger than 0.1
B(  0-C ,  1-C ) :   2.0079 B(  0-C ,  4-H ) :   0.9697 B(  0-C ,  5-H ) :   0.9607
B(  1-C ,  2-C ) :   1.0528 B(  1-C ,  6-H ) :   0.9710 B(  2-C ,  3-O ) :   1.0045
B(  2-C ,  7-H ) :   0.9609 B(  2-C ,  8-H ) :   0.9609 B(  3-O ,  9-H ) :   0.9972

E(0)                                       ...   -191.936837261
E(0)                                       ...   -191.936837261
E(CORR)(strong-pairs)                      ...     -0.640260335
E(CORR)(weak-pairs)                        ...     -0.000127517
E(CORR)(corrected)                         ...     -0.640387852
E(TOT)                                     ...   -192.577225114
E(CCSD(T))                                 ...   -192.595363681
FINAL SINGLE POINT ENERGY      -192.595363680897

DIPOLE MOMENT
-------------
                                X             Y             Z
Electronic contribution:      1.06080      -0.80657      -0.00012
Nuclear contribution   :     -0.58448       1.36785       0.00027
                        -----------------------------------------
Total Dipole Moment    :      0.47632       0.56127       0.00015
                        -----------------------------------------
Magnitude (a.u.)       :      0.73614
Magnitude (Debye)      :      1.87113

Rotational constants in cm-1:     0.571711     0.198345     0.151444
Rotational constants in MHz : 17139.477587  5946.231781  4540.172370

                             ****ORCA TERMINATED NORMALLY****
TOTAL RUN TIME: 0 days 0 hours 0 minutes 21 seconds 811 msec
