                         Program Version 4.1.x  -  STABLE  -
|  1> ! RHF DLPNO-CCSD(T) cc-pVDZ RIJK cc-pVTZ/JK cc-pVDZ/C
|  2> ! KDIIS SOSCF TightSCF TightPNO
|  3>
|  4> %pal nprocs 4 end
|  5>
|  6> %maxcore 8000
|  7>
|  8> %scf maxiter 300
|  9>      shift shift 0.2 erroff 0.1 end
| 10> end
| 11>
| 12> * xyzfile 0 1 propanediamine_tTTt.xyz
| 13>
| 14>
| 15>                          ****END OF INPUT****

CARTESIAN COORDINATES (ANGSTROEM)
---------------------------------
  C      1.284300   -0.502610   -0.000010
  C     -0.000010    0.344400   -0.000010
  C     -1.284290   -0.502620    0.000000
  N     -2.552080    0.234020    0.000010
  N      2.552060    0.234020    0.000000
  H      1.286570   -1.162490   -0.877040
  H      1.286580   -1.162460    0.877040
  H      2.626150    0.832850   -0.818530
  H      2.626220    0.832710    0.818620
  H     -1.286590   -1.162470    0.877050
  H     -1.286590   -1.162490   -0.877030
  H     -2.626120    0.832790    0.818580
  H     -2.626120    0.832810   -0.818560
  H     -0.000000    1.003710    0.881130
  H      0.000000    1.003700   -0.881160

 Total Charge           Charge          ....    0
 Multiplicity           Mult            ....    1
 Number of Electrons    NEL             ....   42
 Basis Dimension        Dim             ....  120

ORBITAL ENERGIES
----------------

  NO   OCC          E(Eh)            E(eV)
   0   2.0000     -15.538464      -422.8231
   1   2.0000     -15.538462      -422.8230
   2   2.0000     -11.251647      -306.1729
   3   2.0000     -11.251641      -306.1727
   4   2.0000     -11.222253      -305.3730
   5   2.0000      -1.176449       -32.0128
   6   2.0000      -1.164133       -31.6777
   7   2.0000      -1.008587       -27.4450
   8   2.0000      -0.871556       -23.7163
   9   2.0000      -0.805974       -21.9317
  10   2.0000      -0.679559       -18.4917
  11   2.0000      -0.655665       -17.8416
  12   2.0000      -0.603269       -16.4158
  13   2.0000      -0.578294       -15.7362
  14   2.0000      -0.574582       -15.6352
  15   2.0000      -0.546423       -14.8689
  16   2.0000      -0.503176       -13.6921
  17   2.0000      -0.495356       -13.4793
  18   2.0000      -0.469369       -12.7722
  19   2.0000      -0.406147       -11.0518
  20   2.0000      -0.363623        -9.8947
  21   0.0000       0.179108         4.8738
  22   0.0000       0.193257         5.2588
  23   0.0000       0.205329         5.5873
  24   0.0000       0.205334         5.5874
  25   0.0000       0.256270         6.9735

MULLIKEN ATOMIC CHARGES
-----------------------
   0 C :    0.091771
   1 C :   -0.097151
   2 C :    0.091759
   3 N :   -0.300154
   4 N :   -0.300161
   5 H :    0.031791
   6 H :    0.031789
   7 H :    0.091212
   8 H :    0.091212
   9 H :    0.031791
  10 H :    0.031792
  11 H :    0.091209
  12 H :    0.091211
  13 H :    0.010963
  14 H :    0.010964
Sum of atomic charges:   -0.0000000

LOEWDIN ATOMIC CHARGES
----------------------
   0 C :   -0.019502
   1 C :   -0.066614
   2 C :   -0.019496
   3 N :   -0.060028
   4 N :   -0.060018
   5 H :    0.017648
   6 H :    0.017649
   7 H :    0.033927
   8 H :    0.033927
   9 H :    0.017649
  10 H :    0.017648
  11 H :    0.033923
  12 H :    0.033928
  13 H :    0.009680
  14 H :    0.009681

  Mayer bond orders larger than 0.1
B(  0-C ,  1-C ) :   1.0353 B(  0-C ,  4-N ) :   1.0435 B(  0-C ,  5-H ) :   0.9701
B(  0-C ,  6-H ) :   0.9701 B(  1-C ,  2-C ) :   1.0353 B(  1-C , 13-H ) :   0.9623
B(  1-C , 14-H ) :   0.9623 B(  2-C ,  3-N ) :   1.0435 B(  2-C ,  9-H ) :   0.9701
B(  2-C , 10-H ) :   0.9701 B(  3-N , 11-H ) :   0.9901 B(  3-N , 12-H ) :   0.9901
B(  4-N ,  7-H ) :   0.9901 B(  4-N ,  8-H ) :   0.9901

E(0)                                       ...   -228.325796906
E(0)                                       ...   -228.325796906
E(CORR)(strong-pairs)                      ...     -0.841396650
E(CORR)(weak-pairs)                        ...     -0.000236492
E(CORR)(corrected)                         ...     -0.841633142
E(TOT)                                     ...   -229.167430048
E(CCSD(T))                                 ...   -229.190111538
FINAL SINGLE POINT ENERGY      -229.190111537843

DIPOLE MOMENT
-------------
                                X             Y             Z
Electronic contribution:      0.00001      -0.02422      -0.00004
Nuclear contribution   :      0.00012       0.73574       0.00009
                        -----------------------------------------
Total Dipole Moment    :      0.00012       0.71152       0.00006
                        -----------------------------------------
Magnitude (a.u.)       :      0.71152
Magnitude (Debye)      :      1.80854

Rotational constants in cm-1:     0.632195     0.063872     0.061110
Rotational constants in MHz : 18952.718730  1914.831076  1832.030384

                             ****ORCA TERMINATED NORMALLY****
TOTAL RUN TIME: 0 days 0 hours 1 minutes 21 seconds 333 msec
