                         Program Version 4.1.x  -  STABLE  -
|  1> ! RHF DLPNO-CCSD(T) cc-pVDZ RIJK cc-pVTZ/JK cc-pVDZ/C
|  2> ! KDIIS SOSCF TightSCF TightPNO
|  3>
|  4> %pal nprocs 4 end
|  5>
|  6> %maxcore 8000
|  7>
|  8> %scf maxiter 300
|  9>      shift shift 0.2 erroff 0.1 end
| 10> end
| 11>
| 12> * xyzfile 0 1 propanediamine_gGGg.xyz
| 13>
| 14>
| 15>                          ****END OF INPUT****

CARTESIAN COORDINATES (ANGSTROEM)
---------------------------------
  C      1.302650    0.495980    0.208150
  C     -0.014500    1.034700   -0.364190
  C     -1.287400    0.462130    0.272220
  N     -1.545880   -0.912080   -0.172790
  N      1.448670   -0.955700   -0.000820
  H      1.320580    0.671510    1.291460
  H      2.136450    1.077000   -0.221520
  H      1.508770   -1.170320   -0.993970
  H      2.302060   -1.299010    0.431820
  H     -2.140440    1.078940   -0.036260
  H     -1.204990    0.562970    1.370800
  H     -0.776170   -1.512060    0.117380
  H     -2.407210   -1.269160    0.231300
  H     -0.010830    2.124060   -0.225480
  H     -0.052300    0.853700   -1.447300

 Total Charge           Charge          ....    0
 Multiplicity           Mult            ....    1
 Number of Electrons    NEL             ....   42
 Basis Dimension        Dim             ....  120

ORBITAL ENERGIES
----------------

  NO   OCC          E(Eh)            E(eV)
   0   2.0000     -15.543424      -422.9581
   1   2.0000     -15.515572      -422.2002
   2   2.0000     -11.252561      -306.1978
   3   2.0000     -11.240390      -305.8666
   4   2.0000     -11.218053      -305.2587
   5   2.0000      -1.177778       -32.0490
   6   2.0000      -1.145624       -31.1740
   7   2.0000      -1.003845       -27.3160
   8   2.0000      -0.874802       -23.8046
   9   2.0000      -0.779702       -21.2168
  10   2.0000      -0.661052       -17.9882
  11   2.0000      -0.649776       -17.6813
  12   2.0000      -0.618729       -16.8365
  13   2.0000      -0.594517       -16.1776
  14   2.0000      -0.549155       -14.9433
  15   2.0000      -0.544676       -14.8214
  16   2.0000      -0.488554       -13.2942
  17   2.0000      -0.479885       -13.0583
  18   2.0000      -0.468699       -12.7540
  19   2.0000      -0.384950       -10.4750
  20   2.0000      -0.365342        -9.9415
  21   0.0000       0.180688         4.9168
  22   0.0000       0.210133         5.7180
  23   0.0000       0.223202         6.0736
  24   0.0000       0.225579         6.1383
  25   0.0000       0.256620         6.9830

MULLIKEN ATOMIC CHARGES
-----------------------
   0 C :    0.072597
   1 C :   -0.061479
   2 C :    0.094392
   3 N :   -0.312536
   4 N :   -0.301121
   5 H :    0.028839
   6 H :    0.014761
   7 H :    0.101161
   8 H :    0.095410
   9 H :    0.023230
  10 H :    0.002346
  11 H :    0.106344
  12 H :    0.085831
  13 H :    0.020570
  14 H :    0.029655
Sum of atomic charges:   -0.0000000

LOEWDIN ATOMIC CHARGES
----------------------
   0 C :   -0.015798
   1 C :   -0.041866
   2 C :   -0.013706
   3 N :   -0.076816
   4 N :   -0.058472
   5 H :    0.015219
   6 H :    0.003345
   7 H :    0.038431
   8 H :    0.037281
   9 H :    0.015348
  10 H :   -0.002717
  11 H :    0.026478
  12 H :    0.031430
  13 H :    0.022810
  14 H :    0.019030

  Mayer bond orders larger than 0.1
B(  0-C ,  1-C ) :   1.0501 B(  0-C ,  4-N ) :   1.0260 B(  0-C ,  5-H ) :   0.9679
B(  0-C ,  6-H ) :   0.9748 B(  1-C ,  2-C ) :   1.0442 B(  1-C , 13-H ) :   0.9701
B(  1-C , 14-H ) :   0.9613 B(  2-C ,  3-N ) :   1.0482 B(  2-C ,  9-H ) :   0.9730
B(  2-C , 10-H ) :   0.9629 B(  3-N , 11-H ) :   0.9688 B(  3-N , 12-H ) :   0.9871
B(  4-N ,  7-H ) :   0.9815 B(  4-N ,  8-H ) :   0.9856

E(0)                                       ...   -228.326885117
E(0)                                       ...   -228.326885117
E(CORR)(strong-pairs)                      ...     -0.842794231
E(CORR)(weak-pairs)                        ...     -0.000239899
E(CORR)(corrected)                         ...     -0.843034129
E(TOT)                                     ...   -229.169919247
E(CCSD(T))                                 ...   -229.192714245
FINAL SINGLE POINT ENERGY      -229.192714244572

DIPOLE MOMENT
-------------
                                X             Y             Z
Electronic contribution:     -0.16342      -1.04490      -0.27477
Nuclear contribution   :      0.71866       1.17760       0.55036
                        -----------------------------------------
Total Dipole Moment    :      0.55524       0.13271       0.27559
                        -----------------------------------------
Magnitude (a.u.)       :      0.63391
Magnitude (Debye)      :      1.61128

Rotational constants in cm-1:     0.245534     0.120290     0.089708
Rotational constants in MHz :  7360.920607  3606.201592  2689.384766

                             ****ORCA TERMINATED NORMALLY****
TOTAL RUN TIME: 0 days 0 hours 1 minutes 21 seconds 619 msec
