                         Program Version 4.1.x  -  STABLE  -
|  1> ! RHF DLPNO-CCSD(T) cc-pVDZ RIJK cc-pVTZ/JK cc-pVDZ/C
|  2> ! KDIIS SOSCF TightSCF TightPNO
|  3>
|  4> %pal nprocs 4 end
|  5>
|  6> %maxcore 8000
|  7>
|  8> %scf maxiter 300
|  9>      shift shift 0.2 erroff 0.1 end
| 10> end
| 11>
| 12> * xyzfile 0 1 propanal_skew.xyz
| 13>
| 14>
| 15>                          ****END OF INPUT****

CARTESIAN COORDINATES (ANGSTROEM)
---------------------------------
  C      1.699690   -0.277680   -0.179650
  C      0.471420    0.586090    0.154960
  C     -0.783280   -0.242160    0.293780
  O     -1.825230   -0.031800   -0.292320
  H     -0.704300   -1.103740    0.996160
  H      0.298960    1.359760   -0.599170
  H      0.633290    1.087020    1.121410
  H      2.605610    0.334910   -0.200360
  H      1.848570   -1.067180    0.565570
  H      1.592720   -0.753840   -1.159590

 Total Charge           Charge          ....    0
 Multiplicity           Mult            ....    1
 Number of Electrons    NEL             ....   32
 Basis Dimension        Dim             ....   86

ORBITAL ENERGIES
----------------

  NO   OCC          E(Eh)            E(eV)
   0   2.0000     -20.558242      -559.4182
   1   2.0000     -11.336089      -308.4707
   2   2.0000     -11.248852      -306.0968
   3   2.0000     -11.245183      -305.9970
   4   2.0000      -1.387844       -37.7652
   5   2.0000      -1.065297       -28.9882
   6   2.0000      -0.903346       -24.5813
   7   2.0000      -0.790136       -21.5007
   8   2.0000      -0.666432       -18.1345
   9   2.0000      -0.635328       -17.2881
  10   2.0000      -0.611962       -16.6523
  11   2.0000      -0.560514       -15.2523
  12   2.0000      -0.539276       -14.6744
  13   2.0000      -0.513884       -13.9835
  14   2.0000      -0.487863       -13.2754
  15   2.0000      -0.414394       -11.2762
  16   0.0000       0.143112         3.8943
  17   0.0000       0.186010         5.0616
  18   0.0000       0.211119         5.7448
  19   0.0000       0.224048         6.0967
  20   0.0000       0.253040         6.8856

MULLIKEN ATOMIC CHARGES
-----------------------
   0 C :   -0.075543
   1 C :   -0.116434
   2 C :    0.251174
   3 O :   -0.320660
   4 H :    0.014876
   5 H :    0.057370
   6 H :    0.054107
   7 H :    0.047093
   8 H :    0.038061
   9 H :    0.049957
Sum of atomic charges:   -0.0000000

LOEWDIN ATOMIC CHARGES
----------------------
   0 C :   -0.048683
   1 C :   -0.061823
   2 C :    0.044388
   3 O :   -0.082121
   4 H :   -0.001782
   5 H :    0.033037
   6 H :    0.036733
   7 H :    0.029792
   8 H :    0.023352
   9 H :    0.027107

  Mayer bond orders larger than 0.1
B(  0-C ,  1-C ) :   1.0481 B(  0-C ,  7-H ) :   0.9834 B(  0-C ,  8-H ) :   0.9804
B(  0-C ,  9-H ) :   0.9812 B(  1-C ,  2-C ) :   1.0102 B(  1-C ,  5-H ) :   0.9627
B(  1-C ,  6-H ) :   0.9555 B(  2-C ,  3-O ) :   2.1102 B(  2-C ,  4-H ) :   0.9515

E(0)                                       ...   -191.964555140
E(0)                                       ...   -191.964555140
E(CORR)(strong-pairs)                      ...     -0.642117863
E(CORR)(weak-pairs)                        ...     -0.000123993
E(CORR)(corrected)                         ...     -0.642241856
E(TOT)                                     ...   -192.606796996
E(CCSD(T))                                 ...   -192.625526864
FINAL SINGLE POINT ENERGY      -192.625526863998

DIPOLE MOMENT
-------------
                                X             Y             Z
Electronic contribution:     -5.31305       0.07693      -0.27162
Nuclear contribution   :      6.46314      -0.14857       0.74441
                        -----------------------------------------
Total Dipole Moment    :      1.15009      -0.07164       0.47279
                        -----------------------------------------
Magnitude (a.u.)       :      1.24554
Magnitude (Debye)      :      3.16591

Rotational constants in cm-1:     0.874044     0.142159     0.136862
Rotational constants in MHz : 26203.178096  4261.819984  4103.007644

                             ****ORCA TERMINATED NORMALLY****
TOTAL RUN TIME: 0 days 0 hours 0 minutes 22 seconds 356 msec
