                         Program Version 4.1.x  -  STABLE  -
|  1> ! RHF DLPNO-CCSD(T) cc-pVDZ RIJK cc-pVTZ/JK cc-pVDZ/C
|  2> ! KDIIS SOSCF TightSCF TightPNO
|  3>
|  4> %pal nprocs 4 end
|  5>
|  6> %maxcore 8000
|  7>
|  8> %scf maxiter 300
|  9>      shift shift 0.2 erroff 0.1 end
| 10> end
| 11>
| 12> * xyzfile 0 1 pyrrolidine_eq.xyz
| 13>
| 14>
| 15>                          ****END OF INPUT****

CARTESIAN COORDINATES (ANGSTROEM)
---------------------------------
  C      0.778870    1.030120   -0.056940
  C      1.165100   -0.447190    0.170590
  N      0.000490   -1.171850   -0.349270
  C     -1.164700   -0.448170    0.170670
  C     -0.779770    1.029440   -0.057040
  H      0.000920   -2.154510   -0.090490
  H     -1.328160   -0.629510    1.249930
  H     -2.074720   -0.742750   -0.361790
  H      2.075320   -0.740950   -0.362000
  H      1.328860   -0.628470    1.249810
  H     -1.199490    1.677470    0.718210
  H     -1.162320    1.378420   -1.020560
  H      1.161220    1.379630   -1.020350
  H      1.197910    1.678400    0.718470

 Total Charge           Charge          ....    0
 Multiplicity           Mult            ....    1
 Number of Electrons    NEL             ....   40
 Basis Dimension        Dim             ....  115

ORBITAL ENERGIES
----------------

  NO   OCC          E(Eh)            E(eV)
   0   2.0000     -15.535041      -422.7300
   1   2.0000     -11.246345      -306.0286
   2   2.0000     -11.246325      -306.0281
   3   2.0000     -11.221432      -305.3507
   4   2.0000     -11.220902      -305.3363
   5   2.0000      -1.211083       -32.9553
   6   2.0000      -1.016742       -27.6670
   7   2.0000      -0.968560       -26.3559
   8   2.0000      -0.802144       -21.8274
   9   2.0000      -0.779182       -21.2026
  10   2.0000      -0.681321       -18.5397
  11   2.0000      -0.651114       -17.7177
  12   2.0000      -0.583140       -15.8681
  13   2.0000      -0.551594       -15.0096
  14   2.0000      -0.508872       -13.8471
  15   2.0000      -0.507029       -13.7969
  16   2.0000      -0.476877       -12.9765
  17   2.0000      -0.468669       -12.7531
  18   2.0000      -0.453484       -12.3399
  19   2.0000      -0.361904        -9.8479
  20   0.0000       0.176519         4.8033
  21   0.0000       0.208081         5.6622
  22   0.0000       0.227691         6.1958
  23   0.0000       0.228117         6.2074
  24   0.0000       0.256540         6.9808

MULLIKEN ATOMIC CHARGES
-----------------------
   0 C :   -0.055683
   1 C :    0.096950
   2 N :   -0.377478
   3 C :    0.096932
   4 C :   -0.055656
   5 H :    0.094750
   6 H :    0.008153
   7 H :    0.027493
   8 H :    0.027495
   9 H :    0.008154
  10 H :    0.027089
  11 H :    0.037355
  12 H :    0.037354
  13 H :    0.027093
Sum of atomic charges:    0.0000000

LOEWDIN ATOMIC CHARGES
----------------------
   0 C :   -0.030292
   1 C :   -0.010949
   2 N :   -0.046945
   3 C :   -0.010949
   4 C :   -0.030290
   5 H :    0.031699
   6 H :   -0.002678
   7 H :    0.014273
   8 H :    0.014274
   9 H :   -0.002678
  10 H :    0.016652
  11 H :    0.020615
  12 H :    0.020615
  13 H :    0.016653

  Mayer bond orders larger than 0.1
B(  0-C ,  1-C ) :   1.0456 B(  0-C ,  4-C ) :   1.0405 B(  0-C , 12-H ) :   0.9705
B(  0-C , 13-H ) :   0.9747 B(  1-C ,  2-N ) :   1.0146 B(  1-C ,  8-H ) :   0.9778
B(  1-C ,  9-H ) :   0.9649 B(  2-N ,  3-C ) :   1.0146 B(  2-N ,  5-H ) :   0.9725
B(  3-C ,  4-C ) :   1.0456 B(  3-C ,  6-H ) :   0.9649 B(  3-C ,  7-H ) :   0.9778
B(  4-C , 10-H ) :   0.9747 B(  4-C , 11-H ) :   0.9705

E(0)                                       ...   -211.161366651
E(0)                                       ...   -211.161366651
E(CORR)(strong-pairs)                      ...     -0.793400782
E(CORR)(weak-pairs)                        ...     -0.000251473
E(CORR)(corrected)                         ...     -0.793652255
E(TOT)                                     ...   -211.955018906
E(CCSD(T))                                 ...   -211.978605204
FINAL SINGLE POINT ENERGY      -211.978605204080

DIPOLE MOMENT
-------------
                                X             Y             Z
Electronic contribution:      0.00049      -1.31523      -0.77178
Nuclear contribution   :     -0.00048       1.27895       1.13987
                        -----------------------------------------
Total Dipole Moment    :      0.00002      -0.03627       0.36809
                        -----------------------------------------
Magnitude (a.u.)       :      0.36987
Magnitude (Debye)      :      0.94015

Rotational constants in cm-1:     0.227657     0.225883     0.129011
Rotational constants in MHz :  6824.985523  6771.789445  3867.647359

                             ****ORCA TERMINATED NORMALLY****
TOTAL RUN TIME: 0 days 0 hours 1 minutes 8 seconds 871 msec
