                         Program Version 4.1.x  -  STABLE  -
|  1> ! RHF DLPNO-CCSD(T) cc-pVDZ RIJK cc-pVTZ/JK cc-pVDZ/C
|  2> ! KDIIS SOSCF TightSCF TightPNO
|  3>
|  4> %pal nprocs 4 end
|  5>
|  6> %maxcore 8000
|  7>
|  8> %scf maxiter 300
|  9>      shift shift 0.2 erroff 0.1 end
| 10> end
| 11>
| 12> * xyzfile 0 1 pyrrolidine_ax.xyz
| 13>
| 14>
| 15>                          ****END OF INPUT****

CARTESIAN COORDINATES (ANGSTROEM)
---------------------------------
  C      0.778210    1.031020   -0.071070
  C      1.160920   -0.452440    0.191130
  N      0.000150   -1.270750   -0.193800
  C     -1.160880   -0.452680    0.190940
  C     -0.778370    1.030940   -0.070820
  H      0.000250   -1.398660   -1.204190
  H     -1.348730   -0.611730    1.260660
  H     -2.054990   -0.775610   -0.350400
  H      2.055260   -0.775330   -0.349840
  H      1.348440   -0.611220    1.260960
  H     -1.195650    1.699370    0.689520
  H     -1.166220    1.363960   -1.039750
  H      1.165680    1.363620   -1.040300
  H      1.195670    1.699830    0.688830

 Total Charge           Charge          ....    0
 Multiplicity           Mult            ....    1
 Number of Electrons    NEL             ....   40
 Basis Dimension        Dim             ....  115

ORBITAL ENERGIES
----------------

  NO   OCC          E(Eh)            E(eV)
   0   2.0000     -15.537186      -422.7883
   1   2.0000     -11.246457      -306.0316
   2   2.0000     -11.246437      -306.0311
   3   2.0000     -11.222465      -305.3788
   4   2.0000     -11.221929      -305.3642
   5   2.0000      -1.211549       -32.9679
   6   2.0000      -1.016409       -27.6579
   7   2.0000      -0.967767       -26.3343
   8   2.0000      -0.811653       -22.0862
   9   2.0000      -0.783299       -21.3146
  10   2.0000      -0.673186       -18.3183
  11   2.0000      -0.634323       -17.2608
  12   2.0000      -0.585108       -15.9216
  13   2.0000      -0.581546       -15.8247
  14   2.0000      -0.507608       -13.8127
  15   2.0000      -0.491703       -13.3799
  16   2.0000      -0.476165       -12.9571
  17   2.0000      -0.473367       -12.8810
  18   2.0000      -0.455770       -12.4021
  19   2.0000      -0.368714       -10.0332
  20   0.0000       0.170748         4.6463
  21   0.0000       0.199757         5.4357
  22   0.0000       0.224596         6.1116
  23   0.0000       0.233754         6.3608
  24   0.0000       0.252397         6.8681

MULLIKEN ATOMIC CHARGES
-----------------------
   0 C :   -0.075246
   1 C :    0.088488
   2 N :   -0.361371
   3 C :    0.088500
   4 C :   -0.075284
   5 H :    0.093823
   6 H :    0.035002
   7 H :    0.027081
   8 H :    0.027081
   9 H :    0.034997
  10 H :    0.029947
  11 H :    0.028525
  12 H :    0.028519
  13 H :    0.029939
Sum of atomic charges:   -0.0000000

LOEWDIN ATOMIC CHARGES
----------------------
   0 C :   -0.045167
   1 C :   -0.011215
   2 N :   -0.045234
   3 C :   -0.011203
   4 C :   -0.045167
   5 H :    0.031257
   6 H :    0.015245
   7 H :    0.014957
   8 H :    0.014957
   9 H :    0.015246
  10 H :    0.017726
  11 H :    0.015438
  12 H :    0.015435
  13 H :    0.017726

  Mayer bond orders larger than 0.1
B(  0-C ,  1-C ) :   1.0298 B(  0-C ,  4-C ) :   1.0388 B(  0-C , 12-H ) :   0.9715
B(  0-C , 13-H ) :   0.9736 B(  1-C ,  2-N ) :   1.0239 B(  1-C ,  8-H ) :   0.9817
B(  1-C ,  9-H ) :   0.9705 B(  2-N ,  3-C ) :   1.0239 B(  2-N ,  5-H ) :   0.9721
B(  3-C ,  4-C ) :   1.0298 B(  3-C ,  6-H ) :   0.9705 B(  3-C ,  7-H ) :   0.9817
B(  4-C , 10-H ) :   0.9736 B(  4-C , 11-H ) :   0.9715

E(0)                                       ...   -211.160371795
E(0)                                       ...   -211.160371795
E(CORR)(strong-pairs)                      ...     -0.794397698
E(CORR)(weak-pairs)                        ...     -0.000248814
E(CORR)(corrected)                         ...     -0.794646512
E(TOT)                                     ...   -211.955018307
E(CCSD(T))                                 ...   -211.978858438
FINAL SINGLE POINT ENERGY      -211.978858437704

DIPOLE MOMENT
-------------
                                X             Y             Z
Electronic contribution:      0.00030      -1.63311      -0.18554
Nuclear contribution   :     -0.00031       2.05625      -0.09046
                        -----------------------------------------
Total Dipole Moment    :     -0.00002       0.42314      -0.27600
                        -----------------------------------------
Magnitude (a.u.)       :      0.50519
Magnitude (Debye)      :      1.28410

Rotational constants in cm-1:     0.226875     0.221503     0.128429
Rotational constants in MHz :  6801.551082  6640.494451  3850.214098

                             ****ORCA TERMINATED NORMALLY****
TOTAL RUN TIME: 0 days 0 hours 1 minutes 14 seconds 301 msec
