                         Program Version 4.1.x  -  STABLE  -
|  1> ! RHF DLPNO-CCSD(T) cc-pVDZ RIJK cc-pVTZ/JK cc-pVDZ/C
|  2> ! KDIIS SOSCF TightSCF TightPNO
|  3>
|  4> %pal nprocs 4 end
|  5>
|  6> %maxcore 8000
|  7>
|  8> %scf maxiter 300
|  9>      shift shift 0.2 erroff 0.1 end
| 10> end
| 11>
| 12> * xyzfile 1 1 s_methylthianium_ax.xyz
| 13>
| 14>
| 15>                          ****END OF INPUT****

CARTESIAN COORDINATES (ANGSTROEM)
---------------------------------
  C      1.185630   -1.281650    0.379120
  C      2.000970    0.000020    0.149280
  C      1.185590    1.281660    0.379140
  C     -0.004810    1.430140   -0.568930
  S     -1.179350   -0.000000   -0.561620
  C     -0.004800   -1.430140   -0.568920
  C     -1.868270   -0.000010    1.126810
  H      0.852000    1.341680    1.421840
  H      1.818150    2.161710    0.215130
  H      0.307720    1.493190   -1.616510
  H     -0.625610    2.304350   -0.352890
  H      2.859770    0.000010    0.826740
  H      2.411590    0.000030   -0.869260
  H      0.307720   -1.493220   -1.616510
  H      1.818200   -2.161690    0.215070
  H     -0.625580   -2.304350   -0.352840
  H      0.852050   -1.341710    1.421830
  H     -1.084880   -0.000080    1.883560
  H     -2.493670    0.890500    1.215430
  H     -2.493760   -0.890460    1.215360

 Total Charge           Charge          ....    1
 Multiplicity           Mult            ....    1
 Number of Electrons    NEL             ....   64
 Basis Dimension        Dim             ....  167

ORBITAL ENERGIES
----------------

  NO   OCC          E(Eh)            E(eV)
   0   2.0000     -92.214843     -2509.2935
   1   2.0000     -11.456103      -311.7364
   2   2.0000     -11.456090      -311.7361
   3   2.0000     -11.453801      -311.6738
   4   2.0000     -11.400626      -310.2268
   5   2.0000     -11.400622      -310.2267
   6   2.0000     -11.385720      -309.8212
   7   2.0000      -9.217072      -250.8093
   8   2.0000      -6.898133      -187.7077
   9   2.0000      -6.897909      -187.7017
  10   2.0000      -6.895958      -187.6486
  11   2.0000      -1.329618       -36.1807
  12   2.0000      -1.229355       -33.4525
  13   2.0000      -1.205665       -32.8078
  14   2.0000      -1.136201       -30.9176
  15   2.0000      -1.028328       -27.9822
  16   2.0000      -1.022023       -27.8107
  17   2.0000      -0.929774       -25.3004
  18   2.0000      -0.829607       -22.5747
  19   2.0000      -0.812459       -22.1081
  20   2.0000      -0.804555       -21.8931
  21   2.0000      -0.772094       -21.0097
  22   2.0000      -0.764599       -20.8058
  23   2.0000      -0.760089       -20.6831
  24   2.0000      -0.724215       -19.7069
  25   2.0000      -0.712137       -19.3782
  26   2.0000      -0.687961       -18.7204
  27   2.0000      -0.675122       -18.3710
  28   2.0000      -0.666929       -18.1481
  29   2.0000      -0.629469       -17.1287
  30   2.0000      -0.616872       -16.7859
  31   2.0000      -0.595304       -16.1990
  32   0.0000      -0.004514        -0.1228
  33   0.0000      -0.002015        -0.0548
  34   0.0000       0.008935         0.2431
  35   0.0000       0.042077         1.1450
  36   0.0000       0.047263         1.2861

MULLIKEN ATOMIC CHARGES
-----------------------
   0 C :   -0.059070
   1 C :   -0.057871
   2 C :   -0.059063
   3 C :   -0.141646
   4 S :    0.289729
   5 C :   -0.141651
   6 C :   -0.151400
   7 H :    0.062234
   8 H :    0.092533
   9 H :    0.124909
  10 H :    0.123358
  11 H :    0.079338
  12 H :    0.057118
  13 H :    0.124911
  14 H :    0.092534
  15 H :    0.123356
  16 H :    0.062235
  17 H :    0.117592
  18 H :    0.130426
  19 H :    0.130427
Sum of atomic charges:    1.0000000

LOEWDIN ATOMIC CHARGES
----------------------
   0 C :   -0.038762
   1 C :   -0.025252
   2 C :   -0.038762
   3 C :   -0.078882
   4 S :    0.761254
   5 C :   -0.078883
   6 C :   -0.099660
   7 H :    0.031130
   8 H :    0.054086
   9 H :    0.049162
  10 H :    0.049900
  11 H :    0.046467
  12 H :    0.031364
  13 H :    0.049164
  14 H :    0.054087
  15 H :    0.049899
  16 H :    0.031130
  17 H :    0.040756
  18 H :    0.055901
  19 H :    0.055901

  Mayer bond orders larger than 0.1
B(  0-C ,  1-C ) :   1.0400 B(  0-C ,  5-C ) :   1.0188 B(  0-C , 14-H ) :   0.9590
B(  0-C , 16-H ) :   0.9647 B(  1-C ,  2-C ) :   1.0400 B(  1-C , 11-H ) :   0.9676
B(  1-C , 12-H ) :   0.9650 B(  2-C ,  3-C ) :   1.0188 B(  2-C ,  7-H ) :   0.9647
B(  2-C ,  8-H ) :   0.9590 B(  3-C ,  4-S ) :   0.9424 B(  3-C ,  9-H ) :   0.9543
B(  3-C , 10-H ) :   0.9606 B(  4-S ,  5-C ) :   0.9424 B(  4-S ,  6-C ) :   0.9583
B(  5-C , 13-H ) :   0.9543 B(  5-C , 15-H ) :   0.9606 B(  6-C , 17-H ) :   0.9676
B(  6-C , 18-H ) :   0.9654 B(  6-C , 19-H ) :   0.9654

E(0)                                       ...   -632.096640709
E(0)                                       ...   -632.096640709
E(CORR)(strong-pairs)                      ...     -1.072694293
E(CORR)(weak-pairs)                        ...     -0.000435750
E(CORR)(corrected)                         ...     -1.073130042
E(TOT)                                     ...   -633.169770751
E(CCSD(T))                                 ...   -633.203775652
FINAL SINGLE POINT ENERGY      -633.203775651735

DIPOLE MOMENT
-------------
                                X             Y             Z
Electronic contribution:     -4.61396       0.00006      -3.57243
Nuclear contribution   :      4.10293      -0.00006       3.77405
                        -----------------------------------------
Total Dipole Moment    :     -0.51103      -0.00000       0.20162
                        -----------------------------------------
Magnitude (a.u.)       :      0.54937
Magnitude (Debye)      :      1.39638

Rotational constants in cm-1:     0.097606     0.064932     0.052064
Rotational constants in MHz :  2926.149788  1946.614687  1560.832664

                             ****ORCA TERMINATED NORMALLY****
TOTAL RUN TIME: 0 days 0 hours 2 minutes 44 seconds 942 msec
