                         Program Version 4.1.x  -  STABLE  -
|  1> ! RHF DLPNO-CCSD(T) cc-pVDZ RIJK cc-pVTZ/JK cc-pVDZ/C
|  2> ! KDIIS SOSCF TightSCF TightPNO
|  3>
|  4> %pal nprocs 4 end
|  5>
|  6> %maxcore 8000
|  7>
|  8> %scf maxiter 300
|  9>      shift shift 0.2 erroff 0.1 end
| 10> end
| 11>
| 12> * xyzfile 1 1 s_methylthianium_eq.xyz
| 13>
| 14>
| 15>                          ****END OF INPUT****

CARTESIAN COORDINATES (ANGSTROEM)
---------------------------------
  C     -1.431420   -1.284200   -0.163830
  C     -2.088910   -0.000020    0.367550
  C     -1.431470    1.284180   -0.163830
  C      0.051950    1.408710    0.206950
  S      0.989470    0.000010   -0.528480
  C      0.051960   -1.408700    0.206940
  C      2.561660   -0.000000    0.392120
  H     -1.548060    1.354040   -1.252250
  H     -1.931710    2.163720    0.256220
  H      0.213240    1.378180    1.289370
  H      0.509640    2.312530   -0.203520
  H     -3.145280   -0.000040    0.083550
  H     -2.063390   -0.000030    1.465310
  H      0.213240   -1.378180    1.289350
  H     -1.931640   -2.163750    0.256220
  H      0.509650   -2.312510   -0.203530
  H     -1.548000   -1.354050   -1.252250
  H      2.375240   -0.000030    1.467570
  H      3.116450   -0.891280    0.092100
  H      3.116440    0.891300    0.092140

 Total Charge           Charge          ....    1
 Multiplicity           Mult            ....    1
 Number of Electrons    NEL             ....   64
 Basis Dimension        Dim             ....  167

ORBITAL ENERGIES
----------------

  NO   OCC          E(Eh)            E(eV)
   0   2.0000     -92.214117     -2509.2737
   1   2.0000     -11.455022      -311.7070
   2   2.0000     -11.455009      -311.7067
   3   2.0000     -11.454943      -311.7048
   4   2.0000     -11.398351      -310.1649
   5   2.0000     -11.398345      -310.1647
   6   2.0000     -11.383160      -309.7515
   7   2.0000      -9.216752      -250.8006
   8   2.0000      -6.897854      -187.7001
   9   2.0000      -6.897561      -187.6922
  10   2.0000      -6.895625      -187.6395
  11   2.0000      -1.331200       -36.2238
  12   2.0000      -1.230860       -33.4934
  13   2.0000      -1.203348       -32.7448
  14   2.0000      -1.129916       -30.7466
  15   2.0000      -1.023857       -27.8606
  16   2.0000      -1.017620       -27.6909
  17   2.0000      -0.936160       -25.4742
  18   2.0000      -0.830113       -22.5885
  19   2.0000      -0.803494       -21.8642
  20   2.0000      -0.793846       -21.6017
  21   2.0000      -0.788332       -21.4516
  22   2.0000      -0.777106       -21.1461
  23   2.0000      -0.747930       -20.3522
  24   2.0000      -0.727292       -19.7906
  25   2.0000      -0.702519       -19.1165
  26   2.0000      -0.698153       -18.9977
  27   2.0000      -0.676612       -18.4116
  28   2.0000      -0.633257       -17.2318
  29   2.0000      -0.628417       -17.1001
  30   2.0000      -0.614257       -16.7148
  31   2.0000      -0.610288       -16.6068
  32   0.0000      -0.012104        -0.3294
  33   0.0000      -0.003623        -0.0986
  34   0.0000       0.008616         0.2344
  35   0.0000       0.043676         1.1885
  36   0.0000       0.056058         1.5254

MULLIKEN ATOMIC CHARGES
-----------------------
   0 C :   -0.059771
   1 C :   -0.059363
   2 C :   -0.059770
   3 C :   -0.145277
   4 S :    0.293421
   5 C :   -0.145256
   6 C :   -0.140363
   7 H :    0.075747
   8 H :    0.091088
   9 H :    0.107776
  10 H :    0.126470
  11 H :    0.081432
  12 H :    0.055339
  13 H :    0.107770
  14 H :    0.091086
  15 H :    0.126466
  16 H :    0.075743
  17 H :    0.115360
  18 H :    0.131051
  19 H :    0.131051
Sum of atomic charges:    1.0000000

LOEWDIN ATOMIC CHARGES
----------------------
   0 C :   -0.035781
   1 C :   -0.027210
   2 C :   -0.035775
   3 C :   -0.076490
   4 S :    0.760670
   5 C :   -0.076486
   6 C :   -0.096315
   7 H :    0.037135
   8 H :    0.052745
   9 H :    0.037506
  10 H :    0.049114
  11 H :    0.047146
  12 H :    0.030133
  13 H :    0.037504
  14 H :    0.052746
  15 H :    0.049113
  16 H :    0.037134
  17 H :    0.044607
  18 H :    0.056252
  19 H :    0.056251

  Mayer bond orders larger than 0.1
B(  0-C ,  1-C ) :   1.0408 B(  0-C ,  5-C ) :   1.0262 B(  0-C , 14-H ) :   0.9608
B(  0-C , 16-H ) :   0.9612 B(  1-C ,  2-C ) :   1.0408 B(  1-C , 11-H ) :   0.9675
B(  1-C , 12-H ) :   0.9641 B(  2-C ,  3-C ) :   1.0262 B(  2-C ,  7-H ) :   0.9612
B(  2-C ,  8-H ) :   0.9608 B(  3-C ,  4-S ) :   0.9319 B(  3-C ,  9-H ) :   0.9563
B(  3-C , 10-H ) :   0.9604 B(  4-S ,  5-C ) :   0.9319 B(  4-S ,  6-C ) :   0.9728
B(  5-C , 13-H ) :   0.9563 B(  5-C , 15-H ) :   0.9604 B(  6-C , 17-H ) :   0.9671
B(  6-C , 18-H ) :   0.9653 B(  6-C , 19-H ) :   0.9653

E(0)                                       ...   -632.098119741
E(0)                                       ...   -632.098119741
E(CORR)(strong-pairs)                      ...     -1.071991202
E(CORR)(weak-pairs)                        ...     -0.000457446
E(CORR)(corrected)                         ...     -1.072448647
E(TOT)                                     ...   -633.170568388
E(CCSD(T))                                 ...   -633.204452280
FINAL SINGLE POINT ENERGY      -633.204452279576

DIPOLE MOMENT
-------------
                                X             Y             Z
Electronic contribution:      3.16317       0.00008      -3.09518
Nuclear contribution   :     -2.23334      -0.00008       3.53696
                        -----------------------------------------
Total Dipole Moment    :      0.92983       0.00000       0.44178
                        -----------------------------------------
Magnitude (a.u.)       :      1.02944
Magnitude (Debye)      :      2.61663

Rotational constants in cm-1:     0.119004     0.058240     0.044239
Rotational constants in MHz :  3567.657507  1745.990434  1326.244108

                             ****ORCA TERMINATED NORMALLY****
TOTAL RUN TIME: 0 days 0 hours 2 minutes 48 seconds 622 msec
