                         Program Version 4.1.x  -  STABLE  -
|  1> ! RHF DLPNO-CCSD(T) cc-pVDZ RIJK cc-pVTZ/JK cc-pVDZ/C
|  2> ! KDIIS SOSCF TightSCF TightPNO
|  3>
|  4> %pal nprocs 4 end
|  5>
|  6> %maxcore 8000
|  7>
|  8> %scf maxiter 300
|  9>      shift shift 0.2 erroff 0.1 end
| 10> end
| 11>
| 12> * xyzfile 0 1 sulfolane_halfchair.xyz
| 13>
| 14>
| 15>                          ****END OF INPUT****

CARTESIAN COORDINATES (ANGSTROEM)
---------------------------------
  C     -1.786610    0.759340   -0.143550
  C     -0.451350    1.315790    0.363420
  S      0.788310    0.000020    0.000020
  C     -0.451270   -1.315700   -0.363680
  C     -1.786490   -0.759420    0.143570
  O      1.522520   -0.334650    1.236600
  O      1.522890    0.334600   -1.236370
  H     -0.114460    2.225780   -0.135470
  H     -0.438830    1.452260    1.447490
  H     -0.114310   -2.225830    0.134930
  H     -0.438840   -1.451870   -1.447790
  H     -1.879800   -0.934590    1.221540
  H     -2.627720   -1.260460   -0.344700
  H     -2.627800    1.260310    0.344850
  H     -1.880150    0.934480   -1.221510

 Total Charge           Charge          ....    0
 Multiplicity           Mult            ....    1
 Number of Electrons    NEL             ....   64
 Basis Dimension        Dim             ....  142

ORBITAL ENERGIES
----------------

  NO   OCC          E(Eh)            E(eV)
   0   2.0000     -92.177997     -2508.2908
   1   2.0000     -20.534512      -558.7725
   2   2.0000     -20.534489      -558.7719
   3   2.0000     -11.283856      -307.0493
   4   2.0000     -11.283839      -307.0489
   5   2.0000     -11.272237      -306.7332
   6   2.0000     -11.271673      -306.7178
   7   2.0000      -9.155056      -249.1217
   8   2.0000      -6.839594      -186.1148
   9   2.0000      -6.838158      -186.0758
  10   2.0000      -6.837927      -186.0695
  11   2.0000      -1.427077       -38.8327
  12   2.0000      -1.316496       -35.8237
  13   2.0000      -1.148055       -31.2402
  14   2.0000      -1.026670       -27.9371
  15   2.0000      -0.971238       -26.4287
  16   2.0000      -0.836606       -22.7652
  17   2.0000      -0.802304       -21.8318
  18   2.0000      -0.696623       -18.9561
  19   2.0000      -0.686109       -18.6700
  20   2.0000      -0.635870       -17.3029
  21   2.0000      -0.631627       -17.1875
  22   2.0000      -0.610981       -16.6256
  23   2.0000      -0.608148       -16.5485
  24   2.0000      -0.556777       -15.1507
  25   2.0000      -0.541256       -14.7283
  26   2.0000      -0.525868       -14.3096
  27   2.0000      -0.517988       -14.0952
  28   2.0000      -0.470731       -12.8092
  29   2.0000      -0.463739       -12.6190
  30   2.0000      -0.448064       -12.1924
  31   2.0000      -0.408677       -11.1207
  32   0.0000       0.151071         4.1109
  33   0.0000       0.174057         4.7363
  34   0.0000       0.203310         5.5324
  35   0.0000       0.210669         5.7326
  36   0.0000       0.225167         6.1271

MULLIKEN ATOMIC CHARGES
-----------------------
   0 C :   -0.074050
   1 C :   -0.172398
   2 S :    1.128571
   3 C :   -0.172394
   4 C :   -0.074070
   5 O :   -0.622851
   6 O :   -0.622852
   7 H :    0.095667
   8 H :    0.092316
   9 H :    0.095671
  10 H :    0.092304
  11 H :    0.059422
  12 H :    0.057626
  13 H :    0.057627
  14 H :    0.059410
Sum of atomic charges:    0.0000000

LOEWDIN ATOMIC CHARGES
----------------------
   0 C :   -0.040717
   1 C :   -0.116205
   2 S :    1.102175
   3 C :   -0.116212
   4 C :   -0.040722
   5 O :   -0.529721
   6 O :   -0.529722
   7 H :    0.037672
   8 H :    0.035379
   9 H :    0.037677
  10 H :    0.035375
  11 H :    0.029820
  12 H :    0.032690
  13 H :    0.032690
  14 H :    0.029818

  Mayer bond orders larger than 0.1
B(  0-C ,  1-C ) :   1.0318 B(  0-C ,  4-C ) :   1.0276 B(  0-C , 13-H ) :   0.9723
B(  0-C , 14-H ) :   0.9659 B(  1-C ,  2-S ) :   0.9005 B(  1-C ,  7-H ) :   0.9615
B(  1-C ,  8-H ) :   0.9535 B(  2-S ,  3-C ) :   0.9005 B(  2-S ,  5-O ) :   1.6659
B(  2-S ,  6-O ) :   1.6659 B(  3-C ,  4-C ) :   1.0317 B(  3-C ,  9-H ) :   0.9615
B(  3-C , 10-H ) :   0.9535 B(  4-C , 11-H ) :   0.9659 B(  4-C , 12-H ) :   0.9723

E(0)                                       ...   -703.307773205
E(0)                                       ...   -703.307773205
E(CORR)(strong-pairs)                      ...     -1.129151851
E(CORR)(weak-pairs)                        ...     -0.000462299
E(CORR)(corrected)                         ...     -1.129614150
E(TOT)                                     ...   -704.437387356
E(CCSD(T))                                 ...   -704.473672635
FINAL SINGLE POINT ENERGY      -704.473672635348

DIPOLE MOMENT
-------------
                                X             Y             Z
Electronic contribution:      7.74488       0.00002       0.00043
Nuclear contribution   :    -10.10081       0.00007      -0.00066
                        -----------------------------------------
Total Dipole Moment    :     -2.35593       0.00009      -0.00023
                        -----------------------------------------
Magnitude (a.u.)       :      2.35593
Magnitude (Debye)      :      5.98829

Rotational constants in cm-1:     0.121870     0.065812     0.061350
Rotational constants in MHz :  3653.574193  1972.989756  1839.213647

                             ****ORCA TERMINATED NORMALLY****
TOTAL RUN TIME: 0 days 0 hours 2 minutes 21 seconds 422 msec
