                         Program Version 4.1.x  -  STABLE  -
|  1> ! RHF DLPNO-CCSD(T) cc-pVDZ RIJK cc-pVTZ/JK cc-pVDZ/C
|  2> ! KDIIS SOSCF TightSCF TightPNO
|  3>
|  4> %pal nprocs 4 end
|  5>
|  6> %maxcore 8000
|  7>
|  8> %scf maxiter 300
|  9>      shift shift 0.2 erroff 0.1 end
| 10> end
| 11>
| 12> * xyzfile 0 1 sulfolane_envelope.xyz
| 13>
| 14>
| 15>                          ****END OF INPUT****

CARTESIAN COORDINATES (ANGSTROEM)
---------------------------------
  C     -1.766840   -0.786840    0.038250
  C     -0.394130   -1.320400   -0.402290
  S      0.782450    0.000000    0.048490
  C     -0.394160    1.320620   -0.401660
  C     -1.766990    0.786760    0.038220
  O      1.967380    0.000230   -0.828150
  O      0.940200   -0.000390    1.517620
  H     -0.082170   -2.236000    0.103410
  H     -0.306100   -1.451850   -1.484200
  H     -0.305890    1.452790   -1.483450
  H     -0.082320    2.235890    0.104710
  H     -2.542640    1.174180   -0.627860
  H     -1.993060    1.147790    1.043970
  H     -2.542770   -1.174460   -0.627390
  H     -1.992250   -1.147890    1.044140

 Total Charge           Charge          ....    0
 Multiplicity           Mult            ....    1
 Number of Electrons    NEL             ....   64
 Basis Dimension        Dim             ....  142

ORBITAL ENERGIES
----------------

  NO   OCC          E(Eh)            E(eV)
   0   2.0000     -92.179077     -2508.3202
   1   2.0000     -20.537976      -558.8667
   2   2.0000     -20.535588      -558.8018
   3   2.0000     -11.284243      -307.0599
   4   2.0000     -11.284220      -307.0592
   5   2.0000     -11.269307      -306.6534
   6   2.0000     -11.268810      -306.6399
   7   2.0000      -9.156163      -249.1519
   8   2.0000      -6.840797      -186.1475
   9   2.0000      -6.839281      -186.1063
  10   2.0000      -6.839095      -186.1012
  11   2.0000      -1.429878       -38.9089
  12   2.0000      -1.318788       -35.8860
  13   2.0000      -1.141923       -31.0733
  14   2.0000      -1.027348       -27.9556
  15   2.0000      -0.975500       -26.5447
  16   2.0000      -0.829496       -22.5717
  17   2.0000      -0.804222       -21.8840
  18   2.0000      -0.690562       -18.7911
  19   2.0000      -0.685197       -18.6451
  20   2.0000      -0.657975       -17.9044
  21   2.0000      -0.627961       -17.0877
  22   2.0000      -0.604175       -16.4404
  23   2.0000      -0.596253       -16.2249
  24   2.0000      -0.562364       -15.3027
  25   2.0000      -0.540412       -14.7054
  26   2.0000      -0.521941       -14.2027
  27   2.0000      -0.507105       -13.7990
  28   2.0000      -0.473108       -12.8739
  29   2.0000      -0.468082       -12.7372
  30   2.0000      -0.450671       -12.2634
  31   2.0000      -0.410328       -11.1656
  32   0.0000       0.148546         4.0422
  33   0.0000       0.174521         4.7490
  34   0.0000       0.201171         5.4741
  35   0.0000       0.205346         5.5878
  36   0.0000       0.227009         6.1772

MULLIKEN ATOMIC CHARGES
-----------------------
   0 C :   -0.061685
   1 C :   -0.184676
   2 S :    1.126779
   3 C :   -0.184689
   4 C :   -0.061638
   5 O :   -0.617392
   6 O :   -0.624394
   7 H :    0.096023
   8 H :    0.085100
   9 H :    0.085111
  10 H :    0.096026
  11 H :    0.053919
  12 H :    0.068790
  13 H :    0.053919
  14 H :    0.068807
Sum of atomic charges:   -0.0000000

LOEWDIN ATOMIC CHARGES
----------------------
   0 C :   -0.036921
   1 C :   -0.122017
   2 S :    1.100272
   3 C :   -0.122010
   4 C :   -0.036912
   5 O :   -0.521181
   6 O :   -0.532840
   7 H :    0.038850
   8 H :    0.032238
   9 H :    0.032240
  10 H :    0.038849
  11 H :    0.030063
  12 H :    0.034652
  13 H :    0.030065
  14 H :    0.034652

  Mayer bond orders larger than 0.1
B(  0-C ,  1-C ) :   1.0240 B(  0-C ,  4-C ) :   1.0248 B(  0-C , 13-H ) :   0.9716
B(  0-C , 14-H ) :   0.9693 B(  1-C ,  2-S ) :   0.9082 B(  1-C ,  7-H ) :   0.9638
B(  1-C ,  8-H ) :   0.9559 B(  2-S ,  3-C ) :   0.9081 B(  2-S ,  5-O ) :   1.6846
B(  2-S ,  6-O ) :   1.6536 B(  3-C ,  4-C ) :   1.0239 B(  3-C ,  9-H ) :   0.9559
B(  3-C , 10-H ) :   0.9638 B(  4-C , 11-H ) :   0.9716 B(  4-C , 12-H ) :   0.9693

E(0)                                       ...   -703.305158690
E(0)                                       ...   -703.305158690
E(CORR)(strong-pairs)                      ...     -1.129142265
E(CORR)(weak-pairs)                        ...     -0.000453570
E(CORR)(corrected)                         ...     -1.129595835
E(TOT)                                     ...   -704.434754525
E(CCSD(T))                                 ...   -704.470881724
FINAL SINGLE POINT ENERGY      -704.470881723786

DIPOLE MOMENT
-------------
                                X             Y             Z
Electronic contribution:      7.66665      -0.00026       1.16331
Nuclear contribution   :     -9.82801       0.00045      -1.91779
                        -----------------------------------------
Total Dipole Moment    :     -2.16136       0.00018      -0.75448
                        -----------------------------------------
Magnitude (a.u.)       :      2.28926
Magnitude (Debye)      :      5.81883

Rotational constants in cm-1:     0.124171     0.066341     0.062114
Rotational constants in MHz :  3722.549319  1988.841112  1862.127064

                             ****ORCA TERMINATED NORMALLY****
TOTAL RUN TIME: 0 days 0 hours 2 minutes 26 seconds 412 msec
