                         Program Version 4.1.x  -  STABLE  -
|  1> ! RHF DLPNO-CCSD(T) cc-pVDZ RIJK cc-pVTZ/JK cc-pVDZ/C
|  2> ! KDIIS SOSCF TightSCF TightPNO
|  3>
|  4> %pal nprocs 4 end
|  5>
|  6> %maxcore 8000
|  7>
|  8> %scf maxiter 300
|  9>      shift shift 0.2 erroff 0.1 end
| 10> end
| 11>
| 12> * xyzfile 0 1 t_butylcyclohexane_ax.xyz
| 13>
| 14>
| 15>                          ****END OF INPUT****

CARTESIAN COORDINATES (ANGSTROEM)
---------------------------------
  C     -0.170100    0.000030   -0.819320
  C      0.732140    1.264490   -0.759890
  C      1.817590    1.263620    0.332760
  C      2.685300   -0.000030    0.262980
  C      1.817540   -1.263650    0.332730
  C      0.732080   -1.264450   -0.759930
  C     -1.452220    0.000010    0.097650
  C     -1.177180   -0.000210    1.616670
  C     -2.311070   -1.243790   -0.232780
  C     -2.310940    1.243970   -0.232490
  H      2.442710    2.158400    0.216740
  H      1.363710    1.334700    1.328640
  H      3.428820   -0.000050    1.069790
  H      3.248130   -0.000020   -0.682580
  H      1.363670   -1.334720    1.328610
  H      2.442620   -2.158440    0.216660
  H      1.246560    1.334890   -1.729630
  H      0.126060    2.172620   -0.683830
  H      0.125950   -2.172540   -0.683850
  H      1.246490   -1.334880   -1.729670
  H     -0.602230    0.000050   -1.831050
  H     -3.272450   -1.190240    0.291000
  H     -2.521340   -1.309930   -1.307230
  H     -1.828330   -2.176720    0.073640
  H     -3.272380    1.190330    0.291160
  H     -1.828160    2.176780    0.074270
  H     -2.521090    1.310460   -1.306940
  H     -2.127830   -0.000190    2.163910
  H     -0.619980   -0.886120    1.934910
  H     -0.619830    0.885530    1.935160

 Total Charge           Charge          ....    0
 Multiplicity           Mult            ....    1
 Number of Electrons    NEL             ....   80
 Basis Dimension        Dim             ....  240

ORBITAL ENERGIES
----------------

  NO   OCC          E(Eh)            E(eV)
   0   2.0000     -11.235612      -305.7365
   1   2.0000     -11.224889      -305.4448
   2   2.0000     -11.217946      -305.2558
   3   2.0000     -11.217908      -305.2548
   4   2.0000     -11.217608      -305.2466
   5   2.0000     -11.217122      -305.2334
   6   2.0000     -11.216839      -305.2257
   7   2.0000     -11.214415      -305.1597
   8   2.0000     -11.214293      -305.1564
   9   2.0000     -11.214272      -305.1558
  10   2.0000      -1.121583       -30.5198
  11   2.0000      -1.074401       -29.2360
  12   2.0000      -0.996298       -27.1106
  13   2.0000      -0.985833       -26.8259
  14   2.0000      -0.925249       -25.1773
  15   2.0000      -0.923173       -25.1208
  16   2.0000      -0.836368       -22.7587
  17   2.0000      -0.824462       -22.4348
  18   2.0000      -0.762615       -20.7518
  19   2.0000      -0.700973       -19.0744
  20   2.0000      -0.645455       -17.5637
  21   2.0000      -0.627455       -17.0739
  22   2.0000      -0.609538       -16.5864
  23   2.0000      -0.600201       -16.3323
  24   2.0000      -0.580147       -15.7866
  25   2.0000      -0.566408       -15.4127
  26   2.0000      -0.544788       -14.8244
  27   2.0000      -0.539195       -14.6722
  28   2.0000      -0.535595       -14.5743
  29   2.0000      -0.522221       -14.2104
  30   2.0000      -0.505320       -13.7504
  31   2.0000      -0.504862       -13.7380
  32   2.0000      -0.500186       -13.6107
  33   2.0000      -0.475409       -12.9365
  34   2.0000      -0.462468       -12.5844
  35   2.0000      -0.453957       -12.3528
  36   2.0000      -0.452735       -12.3195
  37   2.0000      -0.417527       -11.3615
  38   2.0000      -0.415350       -11.3022
  39   2.0000      -0.410163       -11.1611
  40   0.0000       0.170217         4.6318
  41   0.0000       0.194582         5.2949
  42   0.0000       0.205969         5.6047
  43   0.0000       0.215144         5.8544
  44   0.0000       0.226888         6.1739

MULLIKEN ATOMIC CHARGES
-----------------------
   0 C :   -0.113117
   1 C :    0.021512
   2 C :   -0.041861
   3 C :   -0.036033
   4 C :   -0.041859
   5 C :    0.021514
   6 C :   -0.443721
   7 C :    0.055480
   8 C :    0.057941
   9 C :    0.057943
  10 H :    0.021221
  11 H :    0.023795
  12 H :    0.019329
  13 H :    0.018941
  14 H :    0.023796
  15 H :    0.021220
  16 H :    0.022206
  17 H :    0.020193
  18 H :    0.020191
  19 H :    0.022207
  20 H :    0.012661
  21 H :    0.024433
  22 H :    0.022889
  23 H :    0.028807
  24 H :    0.024432
  25 H :    0.028811
  26 H :    0.022889
  27 H :    0.024039
  28 H :    0.030074
  29 H :    0.030069
Sum of atomic charges:    0.0000000

LOEWDIN ATOMIC CHARGES
----------------------
   0 C :   -0.026746
   1 C :   -0.026350
   2 C :   -0.034863
   3 C :   -0.033110
   4 C :   -0.034860
   5 C :   -0.026349
   6 C :   -0.059407
   7 C :   -0.039567
   8 C :   -0.035254
   9 C :   -0.035256
  10 H :    0.019206
  11 H :    0.013704
  12 H :    0.017964
  13 H :    0.014595
  14 H :    0.013705
  15 H :    0.019204
  16 H :    0.019757
  17 H :    0.017171
  18 H :    0.017169
  19 H :    0.019757
  20 H :    0.019700
  21 H :    0.018771
  22 H :    0.018155
  23 H :    0.016143
  24 H :    0.018770
  25 H :    0.016146
  26 H :    0.018156
  27 H :    0.019857
  28 H :    0.016917
  29 H :    0.016918

  Mayer bond orders larger than 0.1
B(  0-C ,  1-C ) :   1.0399 B(  0-C ,  5-C ) :   1.0399 B(  0-C ,  6-C ) :   0.9902
B(  0-C , 20-H ) :   0.9451 B(  1-C ,  2-C ) :   1.0418 B(  1-C , 16-H ) :   0.9619
B(  1-C , 17-H ) :   0.9677 B(  2-C ,  3-C ) :   1.0458 B(  2-C , 10-H ) :   0.9712
B(  2-C , 11-H ) :   0.9642 B(  3-C ,  4-C ) :   1.0458 B(  3-C , 12-H ) :   0.9725
B(  3-C , 13-H ) :   0.9646 B(  4-C ,  5-C ) :   1.0418 B(  4-C , 14-H ) :   0.9642
B(  4-C , 15-H ) :   0.9712 B(  5-C , 18-H ) :   0.9677 B(  5-C , 19-H ) :   0.9619
B(  6-C ,  7-C ) :   1.0249 B(  6-C ,  8-C ) :   1.0366 B(  6-C ,  9-C ) :   1.0367
B(  7-C , 27-H ) :   0.9762 B(  7-C , 28-H ) :   0.9766 B(  7-C , 29-H ) :   0.9766
B(  8-C , 21-H ) :   0.9783 B(  8-C , 22-H ) :   0.9774 B(  8-C , 23-H ) :   0.9776
B(  9-C , 24-H ) :   0.9783 B(  9-C , 25-H ) :   0.9776 B(  9-C , 26-H ) :   0.9774

E(0)                                       ...   -390.353365823
E(0)                                       ...   -390.353365823
E(CORR)(strong-pairs)                      ...     -1.570575526
E(CORR)(weak-pairs)                        ...     -0.001061795
E(CORR)(corrected)                         ...     -1.571637321
E(TOT)                                     ...   -391.925003145
E(CCSD(T))                                 ...   -391.974519642
FINAL SINGLE POINT ENERGY      -391.974519641836

DIPOLE MOMENT
-------------
                                X             Y             Z
Electronic contribution:      2.32948       0.00005      -1.05150
Nuclear contribution   :     -2.33384      -0.00006       1.03868
                        -----------------------------------------
Total Dipole Moment    :     -0.00437      -0.00001      -0.01282
                        -----------------------------------------
Magnitude (a.u.)       :      0.01355
Magnitude (Debye)      :      0.03444

Rotational constants in cm-1:     0.068187     0.031961     0.028324
Rotational constants in MHz :  2044.195689   958.154722   849.124228

                             ****ORCA TERMINATED NORMALLY****
TOTAL RUN TIME: 0 days 0 hours 9 minutes 11 seconds 936 msec
