                         Program Version 4.1.x  -  STABLE  -
|  1> ! RHF DLPNO-CCSD(T) cc-pVDZ RIJK cc-pVTZ/JK cc-pVDZ/C
|  2> ! KDIIS SOSCF TightSCF TightPNO
|  3>
|  4> %pal nprocs 4 end
|  5>
|  6> %maxcore 8000
|  7>
|  8> %scf maxiter 300
|  9>      shift shift 0.2 erroff 0.1 end
| 10> end
| 11>
| 12> * xyzfile 0 1 t_butylcyclohexane_eq.xyz
| 13>
| 14>
| 15>                          ****END OF INPUT****

CARTESIAN COORDINATES (ANGSTROEM)
---------------------------------
  C     -0.070550   -0.000050   -0.319480
  C      0.676460   -1.258180    0.179270
  C      2.155630   -1.263290   -0.244850
  C      2.888890    0.000040    0.225270
  C      2.155540    1.263300   -0.244860
  C      0.676380    1.258080    0.179320
  C     -1.611930   -0.000020   -0.016780
  C     -1.914930   -0.000030    1.496860
  C     -2.271980   -1.244930   -0.652030
  C     -2.271770    1.245030   -0.651980
  H      2.651230   -2.160700    0.146590
  H      2.215480   -1.328220   -1.341340
  H      3.924150    0.000080   -0.138500
  H      2.942990    0.000050    1.323980
  H      2.215360    1.328240   -1.341350
  H      2.651070    2.160760    0.146580
  H      0.623580   -1.305180    1.276390
  H      0.195200   -2.167260   -0.195570
  H      0.195020    2.167150   -0.195450
  H      0.623580    1.305030    1.276440
  H      0.009450   -0.000010   -1.419860
  H     -3.361810   -1.192080   -0.546780
  H     -2.044510   -1.311780   -1.723040
  H     -1.945750   -2.176220   -0.179500
  H     -3.361610    1.192410   -0.546670
  H     -1.945300    2.176250   -0.179460
  H     -2.044340    1.311850   -1.722990
  H     -2.998460   -0.000030    1.664390
  H     -1.507870   -0.885710    1.995880
  H     -1.507860    0.885640    1.995880

 Total Charge           Charge          ....    0
 Multiplicity           Mult            ....    1
 Number of Electrons    NEL             ....   80
 Basis Dimension        Dim             ....  240

ORBITAL ENERGIES
----------------

  NO   OCC          E(Eh)            E(eV)
   0   2.0000     -11.234617      -305.7095
   1   2.0000     -11.223264      -305.4005
   2   2.0000     -11.218939      -305.2828
   3   2.0000     -11.218780      -305.2785
   4   2.0000     -11.217790      -305.2516
   5   2.0000     -11.216510      -305.2168
   6   2.0000     -11.216472      -305.2157
   7   2.0000     -11.214106      -305.1513
   8   2.0000     -11.214089      -305.1509
   9   2.0000     -11.214020      -305.1490
  10   2.0000      -1.124463       -30.5982
  11   2.0000      -1.076640       -29.2969
  12   2.0000      -0.997236       -27.1362
  13   2.0000      -0.982443       -26.7336
  14   2.0000      -0.925316       -25.1791
  15   2.0000      -0.923390       -25.1267
  16   2.0000      -0.834710       -22.7136
  17   2.0000      -0.823503       -22.4087
  18   2.0000      -0.757977       -20.6256
  19   2.0000      -0.717732       -19.5305
  20   2.0000      -0.645610       -17.5680
  21   2.0000      -0.609393       -16.5824
  22   2.0000      -0.605748       -16.4832
  23   2.0000      -0.594275       -16.1710
  24   2.0000      -0.587972       -15.9995
  25   2.0000      -0.578187       -15.7333
  26   2.0000      -0.569519       -15.4974
  27   2.0000      -0.535617       -14.5749
  28   2.0000      -0.522816       -14.2265
  29   2.0000      -0.520738       -14.1700
  30   2.0000      -0.505814       -13.7639
  31   2.0000      -0.494465       -13.4551
  32   2.0000      -0.483564       -13.1584
  33   2.0000      -0.476833       -12.9753
  34   2.0000      -0.472445       -12.8559
  35   2.0000      -0.455860       -12.4046
  36   2.0000      -0.454004       -12.3541
  37   2.0000      -0.434947       -11.8355
  38   2.0000      -0.411144       -11.1878
  39   2.0000      -0.409096       -11.1321
  40   0.0000       0.176852         4.8124
  41   0.0000       0.194423         5.2905
  42   0.0000       0.195129         5.3097
  43   0.0000       0.214225         5.8294
  44   0.0000       0.229661         6.2494

MULLIKEN ATOMIC CHARGES
-----------------------
   0 C :   -0.126784
   1 C :    0.006876
   2 C :   -0.019688
   3 C :   -0.038561
   4 C :   -0.019682
   5 C :    0.006847
   6 C :   -0.453417
   7 C :    0.060800
   8 C :    0.061943
   9 C :    0.061929
  10 H :    0.020218
  11 H :    0.020399
  12 H :    0.021319
  13 H :    0.020365
  14 H :    0.020398
  15 H :    0.020216
  16 H :    0.023786
  17 H :    0.025083
  18 H :    0.025091
  19 H :    0.023785
  20 H :    0.008622
  21 H :    0.024371
  22 H :    0.022812
  23 H :    0.029111
  24 H :    0.024370
  25 H :    0.029116
  26 H :    0.022812
  27 H :    0.023659
  28 H :    0.027103
  29 H :    0.027101
Sum of atomic charges:    0.0000000

LOEWDIN ATOMIC CHARGES
----------------------
   0 C :   -0.026303
   1 C :   -0.026499
   2 C :   -0.030348
   3 C :   -0.034284
   4 C :   -0.030349
   5 C :   -0.026501
   6 C :   -0.059827
   7 C :   -0.037448
   8 C :   -0.035365
   9 C :   -0.035364
  10 H :    0.018643
  11 H :    0.015413
  12 H :    0.018385
  13 H :    0.015265
  14 H :    0.015411
  15 H :    0.018643
  16 H :    0.014283
  17 H :    0.017963
  18 H :    0.017966
  19 H :    0.014283
  20 H :    0.013175
  21 H :    0.018852
  22 H :    0.018247
  23 H :    0.016789
  24 H :    0.018849
  25 H :    0.016790
  26 H :    0.018246
  27 H :    0.019854
  28 H :    0.017616
  29 H :    0.017615

  Mayer bond orders larger than 0.1
B(  0-C ,  1-C ) :   1.0230 B(  0-C ,  5-C ) :   1.0230 B(  0-C ,  6-C ) :   1.0192
B(  0-C , 20-H ) :   0.9396 B(  1-C ,  2-C ) :   1.0603 B(  1-C , 16-H ) :   0.9557
B(  1-C , 17-H ) :   0.9650 B(  2-C ,  3-C ) :   1.0460 B(  2-C , 10-H ) :   0.9706
B(  2-C , 11-H ) :   0.9623 B(  3-C ,  4-C ) :   1.0460 B(  3-C , 12-H ) :   0.9723
B(  3-C , 13-H ) :   0.9636 B(  4-C ,  5-C ) :   1.0603 B(  4-C , 14-H ) :   0.9623
B(  4-C , 15-H ) :   0.9706 B(  5-C , 18-H ) :   0.9650 B(  5-C , 19-H ) :   0.9557
B(  6-C ,  7-C ) :   1.0206 B(  6-C ,  8-C ) :   1.0422 B(  6-C ,  9-C ) :   1.0422
B(  7-C , 27-H ) :   0.9779 B(  7-C , 28-H ) :   0.9780 B(  7-C , 29-H ) :   0.9780
B(  8-C , 21-H ) :   0.9778 B(  8-C , 22-H ) :   0.9768 B(  8-C , 23-H ) :   0.9769
B(  9-C , 24-H ) :   0.9778 B(  9-C , 25-H ) :   0.9769 B(  9-C , 26-H ) :   0.9768

E(0)                                       ...   -390.363622227
E(0)                                       ...   -390.363622227
E(CORR)(strong-pairs)                      ...     -1.569039862
E(CORR)(weak-pairs)                        ...     -0.001206190
E(CORR)(corrected)                         ...     -1.570246052
E(TOT)                                     ...   -391.933868279
E(CCSD(T))                                 ...   -391.983193696
FINAL SINGLE POINT ENERGY      -391.983193696049

DIPOLE MOMENT
-------------
                                X             Y             Z
Electronic contribution:      2.65883      -0.00030      -0.31608
Nuclear contribution   :     -2.64610       0.00030       0.31663
                        -----------------------------------------
Total Dipole Moment    :      0.01273       0.00000       0.00055
                        -----------------------------------------
Magnitude (a.u.)       :      0.01274
Magnitude (Debye)      :      0.03238

Rotational constants in cm-1:     0.074449     0.028415     0.024765
Rotational constants in MHz :  2231.937207   851.851533   742.439401

                             ****ORCA TERMINATED NORMALLY****
TOTAL RUN TIME: 0 days 0 hours 7 minutes 45 seconds 587 msec
