                         Program Version 4.1.x  -  STABLE  -
|  1> ! RHF DLPNO-CCSD(T) cc-pVDZ RIJK cc-pVTZ/JK cc-pVDZ/C
|  2> ! KDIIS SOSCF TightSCF TightPNO
|  3>
|  4> %pal nprocs 4 end
|  5>
|  6> %maxcore 8000
|  7>
|  8> %scf maxiter 300
|  9>      shift shift 0.2 erroff 0.1 end
| 10> end
| 11>
| 12> * xyzfile 0 1 tBu_CMe2Cl.xyz
| 13>
| 14>
| 15>                          ****END OF INPUT****

CARTESIAN COORDINATES (ANGSTROEM)
---------------------------------
  C     -0.964150   -0.160660   -0.000000
  C      0.483530    0.450690    0.000000
  C      0.806940    1.278520   -1.246920
  C      0.806930    1.278530    1.246920
  Cl     1.717260   -0.928240    0.000010
  H      1.831370    1.626090   -1.197230
  H      0.695330    0.708100   -2.158050
  H      0.162340    2.149020   -1.297970
  H      1.831370    1.626070    1.197250
  H      0.162360    2.149050    1.297930
  H      0.695280    0.708130    2.158050
  C     -1.217990   -1.028920    1.246800
  C     -2.011940    0.973890   -0.000040
  C     -1.217960   -1.028980   -1.246760
  H     -2.216010   -1.452160    1.189270
  H     -0.514480   -1.848340    1.319750
  H     -1.167920   -0.453730    2.164340
  H     -3.004820    0.535630   -0.000060
  H     -1.941110    1.604190    0.878990
  H     -1.941070    1.604170   -0.879080
  H     -2.215950   -1.452270   -1.189210
  H     -1.167930   -0.453830   -2.164330
  H     -0.514400   -1.848370   -1.319690

 Total Charge           Charge          ....    0
 Multiplicity           Mult            ....    1
 Number of Electrons    NEL             ....   74
 Basis Dimension        Dim             ....  191

ORBITAL ENERGIES
----------------

  NO   OCC          E(Eh)            E(eV)
   0   2.0000    -104.796605     -2851.6606
   1   2.0000     -11.305960      -307.6508
   2   2.0000     -11.251710      -306.1746
   3   2.0000     -11.229282      -305.5643
   4   2.0000     -11.229265      -305.5638
   5   2.0000     -11.224820      -305.4429
   6   2.0000     -11.215619      -305.1925
   7   2.0000     -11.215601      -305.1920
   8   2.0000     -10.523982      -286.3721
   9   2.0000      -7.991258      -217.4532
  10   2.0000      -7.988340      -217.3738
  11   2.0000      -7.988304      -217.3728
  12   2.0000      -1.159304       -31.5463
  13   2.0000      -1.073913       -29.2227
  14   2.0000      -1.008227       -27.4353
  15   2.0000      -0.958484       -26.0817
  16   2.0000      -0.937225       -25.5032
  17   2.0000      -0.925955       -25.1965
  18   2.0000      -0.828865       -22.5546
  19   2.0000      -0.707810       -19.2605
  20   2.0000      -0.654704       -17.8154
  21   2.0000      -0.619254       -16.8508
  22   2.0000      -0.613607       -16.6971
  23   2.0000      -0.602588       -16.3973
  24   2.0000      -0.590113       -16.0578
  25   2.0000      -0.563194       -15.3253
  26   2.0000      -0.543845       -14.7988
  27   2.0000      -0.534887       -14.5550
  28   2.0000      -0.527007       -14.3406
  29   2.0000      -0.520489       -14.1632
  30   2.0000      -0.506063       -13.7707
  31   2.0000      -0.492840       -13.4109
  32   2.0000      -0.467222       -12.7138
  33   2.0000      -0.458730       -12.4827
  34   2.0000      -0.449066       -12.2197
  35   2.0000      -0.414907       -11.2902
  36   2.0000      -0.414706       -11.2847
  37   0.0000       0.172632         4.6975
  38   0.0000       0.191917         5.2223
  39   0.0000       0.212050         5.7702
  40   0.0000       0.221598         6.0300
  41   0.0000       0.229049         6.2327

MULLIKEN ATOMIC CHARGES
-----------------------
   0 C :   -0.414904
   1 C :   -0.367214
   2 C :    0.109263
   3 C :    0.109267
   4 Cl:   -0.170356
   5 H :    0.043754
   6 H :    0.044459
   7 H :    0.032567
   8 H :    0.043754
   9 H :    0.032565
  10 H :    0.044458
  11 C :    0.077794
  12 C :    0.063381
  13 C :    0.077793
  14 H :    0.024113
  15 H :    0.046284
  16 H :    0.022538
  17 H :    0.031129
  18 H :    0.028210
  19 H :    0.028211
  20 H :    0.024111
  21 H :    0.022537
  22 H :    0.046287
Sum of atomic charges:   -0.0000000

LOEWDIN ATOMIC CHARGES
----------------------
   0 C :   -0.065336
   1 C :   -0.068028
   2 C :   -0.038780
   3 C :   -0.038779
   4 Cl:   -0.012548
   5 H :    0.026466
   6 H :    0.024060
   7 H :    0.022241
   8 H :    0.026466
   9 H :    0.022240
  10 H :    0.024058
  11 C :   -0.031736
  12 C :   -0.030256
  13 C :   -0.031739
  14 H :    0.020462
  15 H :    0.020198
  16 H :    0.015821
  17 H :    0.024199
  18 H :    0.017255
  19 H :    0.017255
  20 H :    0.020460
  21 H :    0.015821
  22 H :    0.020199

  Mayer bond orders larger than 0.1
B(  0-C ,  1-C ) :   0.9634 B(  0-C , 11-C ) :   1.0361 B(  0-C , 12-C ) :   1.0227
B(  0-C , 13-C ) :   1.0361 B(  1-C ,  2-C ) :   1.0141 B(  1-C ,  3-C ) :   1.0141
B(  1-C ,  4-Cl) :   0.9905 B(  2-C ,  5-H ) :   0.9761 B(  2-C ,  6-H ) :   0.9763
B(  2-C ,  7-H ) :   0.9684 B(  3-C ,  8-H ) :   0.9761 B(  3-C ,  9-H ) :   0.9684
B(  3-C , 10-H ) :   0.9763 B( 11-C , 14-H ) :   0.9766 B( 11-C , 15-H ) :   0.9748
B( 11-C , 16-H ) :   0.9762 B( 12-C , 17-H ) :   0.9780 B( 12-C , 18-H ) :   0.9776
B( 12-C , 19-H ) :   0.9776 B( 13-C , 20-H ) :   0.9766 B( 13-C , 21-H ) :   0.9762
B( 13-C , 22-H ) :   0.9748

E(0)                                       ...   -733.336754411
E(0)                                       ...   -733.336754411
E(CORR)(strong-pairs)                      ...     -1.262826821
E(CORR)(weak-pairs)                        ...     -0.000613658
E(CORR)(corrected)                         ...     -1.263440480
E(TOT)                                     ...   -734.600194891
E(CCSD(T))                                 ...   -734.638127559
FINAL SINGLE POINT ENERGY      -734.638127558842

DIPOLE MOMENT
-------------
                                X             Y             Z
Electronic contribution:     11.45900      -6.04825       0.00008
Nuclear contribution   :    -12.14046       6.73958      -0.00008
                        -----------------------------------------
Total Dipole Moment    :     -0.68146       0.69133      -0.00000
                        -----------------------------------------
Magnitude (a.u.)       :      0.97073
Magnitude (Debye)      :      2.46741

Rotational constants in cm-1:     0.067848     0.046333     0.042480
Rotational constants in MHz :  2034.042210  1389.040686  1273.525516

                             ****ORCA TERMINATED NORMALLY****
TOTAL RUN TIME: 0 days 0 hours 5 minutes 7 seconds 378 msec
