                         Program Version 4.1.x  -  STABLE  -
|  1> ! RHF DLPNO-CCSD(T) cc-pVDZ RIJK cc-pVTZ/JK cc-pVDZ/C
|  2> ! KDIIS SOSCF TightSCF TightPNO
|  3>
|  4> %pal nprocs 4 end
|  5>
|  6> %maxcore 8000
|  7>
|  8> %scf maxiter 300
|  9>      shift shift 0.2 erroff 0.1 end
| 10> end
| 11>
| 12> * xyzfile 0 1 tBu_CMe2Cl_ts.xyz
| 13>
| 14>
| 15>                          ****END OF INPUT****

CARTESIAN COORDINATES (ANGSTROEM)
---------------------------------
  C      1.003480    0.143030   -0.000010
  C     -0.503570   -0.441580    0.000010
  C     -0.862660   -1.263680   -1.245880
  C     -0.862630   -1.263720    1.245880
  Cl    -1.771270    0.951450    0.000010
  H     -1.902540   -1.592730   -1.180540
  H     -0.748250   -0.692770   -2.168810
  H     -0.229970   -2.155410   -1.307070
  H     -1.902510   -1.592770    1.180550
  H     -0.229940   -2.155450    1.307020
  H     -0.748190   -0.692840    2.168830
  C      1.792930   -0.334720    1.244100
  C      1.793030   -0.335020   -1.243940
  C      1.060230    1.687380   -0.000170
  H      2.809750    0.068510    1.194230
  H      1.349630    0.019060    2.179020
  H      1.879740   -1.424360    1.294810
  H      2.809860    0.068190   -1.194060
  H      1.879800   -1.424670   -1.294400
  H      1.349830    0.018570   -2.178990
  H      2.110070    2.001480   -0.000180
  H      0.579780    2.115130   -0.883450
  H      0.579760    2.115290    0.883020

 Total Charge           Charge          ....    0
 Multiplicity           Mult            ....    1
 Number of Electrons    NEL             ....   74
 Basis Dimension        Dim             ....  191

ORBITAL ENERGIES
----------------

  NO   OCC          E(Eh)            E(eV)
   0   2.0000    -104.793679     -2851.5810
   1   2.0000     -11.313338      -307.8516
   2   2.0000     -11.258995      -306.3728
   3   2.0000     -11.233725      -305.6852
   4   2.0000     -11.233707      -305.6847
   5   2.0000     -11.227025      -305.5029
   6   2.0000     -11.227006      -305.5024
   7   2.0000     -11.218012      -305.2576
   8   2.0000     -10.520619      -286.2806
   9   2.0000      -7.987847      -217.3604
  10   2.0000      -7.984989      -217.2826
  11   2.0000      -7.984956      -217.2817
  12   2.0000      -1.148736       -31.2587
  13   2.0000      -1.072316       -29.1792
  14   2.0000      -1.005989       -27.3743
  15   2.0000      -0.959360       -26.1055
  16   2.0000      -0.927300       -25.2331
  17   2.0000      -0.922210       -25.0946
  18   2.0000      -0.822058       -22.3693
  19   2.0000      -0.706061       -19.2129
  20   2.0000      -0.656513       -17.8646
  21   2.0000      -0.625102       -17.0099
  22   2.0000      -0.612183       -16.6583
  23   2.0000      -0.579462       -15.7680
  24   2.0000      -0.569588       -15.4993
  25   2.0000      -0.565943       -15.4001
  26   2.0000      -0.561617       -15.2824
  27   2.0000      -0.540577       -14.7098
  28   2.0000      -0.523559       -14.2468
  29   2.0000      -0.513691       -13.9782
  30   2.0000      -0.503074       -13.6893
  31   2.0000      -0.491160       -13.3651
  32   2.0000      -0.460181       -12.5222
  33   2.0000      -0.459445       -12.5021
  34   2.0000      -0.443777       -12.0758
  35   2.0000      -0.412163       -11.2155
  36   2.0000      -0.411830       -11.2065
  37   0.0000       0.165994         4.5169
  38   0.0000       0.180154         4.9022
  39   0.0000       0.207346         5.6422
  40   0.0000       0.215883         5.8745
  41   0.0000       0.218010         5.9324

MULLIKEN ATOMIC CHARGES
-----------------------
   0 C :   -0.400725
   1 C :   -0.324928
   2 C :    0.087603
   3 C :    0.087605
   4 Cl:   -0.195000
   5 H :    0.050064
   6 H :    0.048494
   7 H :    0.035617
   8 H :    0.050065
   9 H :    0.035617
  10 H :    0.048495
  11 C :    0.049280
  12 C :    0.049282
  13 C :    0.072904
  14 H :    0.034231
  15 H :    0.035536
  16 H :    0.027750
  17 H :    0.034233
  18 H :    0.027752
  19 H :    0.035535
  20 H :    0.023697
  21 H :    0.043444
  22 H :    0.043449
Sum of atomic charges:    0.0000000

LOEWDIN ATOMIC CHARGES
----------------------
   0 C :   -0.056079
   1 C :   -0.043878
   2 C :   -0.044460
   3 C :   -0.044458
   4 Cl:   -0.034900
   5 H :    0.027070
   6 H :    0.025550
   7 H :    0.023571
   8 H :    0.027071
   9 H :    0.023571
  10 H :    0.025552
  11 C :   -0.035144
  12 C :   -0.035144
  13 C :   -0.039709
  14 H :    0.023422
  15 H :    0.021156
  16 H :    0.017096
  17 H :    0.023424
  18 H :    0.017095
  19 H :    0.021158
  20 H :    0.018326
  21 H :    0.019855
  22 H :    0.019856

  Mayer bond orders larger than 0.1
B(  0-C ,  1-C ) :   0.8958 B(  0-C , 11-C ) :   1.0469 B(  0-C , 12-C ) :   1.0469
B(  0-C , 13-C ) :   1.0405 B(  1-C ,  2-C ) :   1.0254 B(  1-C ,  3-C ) :   1.0254
B(  1-C ,  4-Cl) :   0.9885 B(  2-C ,  5-H ) :   0.9744 B(  2-C ,  6-H ) :   0.9748
B(  2-C ,  7-H ) :   0.9659 B(  3-C ,  8-H ) :   0.9744 B(  3-C ,  9-H ) :   0.9659
B(  3-C , 10-H ) :   0.9748 B( 11-C , 14-H ) :   0.9753 B( 11-C , 15-H ) :   0.9756
B( 11-C , 16-H ) :   0.9751 B( 12-C , 17-H ) :   0.9753 B( 12-C , 18-H ) :   0.9751
B( 12-C , 19-H ) :   0.9756 B( 13-C , 20-H ) :   0.9744 B( 13-C , 21-H ) :   0.9755
B( 13-C , 22-H ) :   0.9755

E(0)                                       ...   -733.320985154
E(0)                                       ...   -733.320985154
E(CORR)(strong-pairs)                      ...     -1.266370468
E(CORR)(weak-pairs)                        ...     -0.000611600
E(CORR)(corrected)                         ...     -1.266982068
E(TOT)                                     ...   -734.587967222
E(CCSD(T))                                 ...   -734.626431990
FINAL SINGLE POINT ENERGY      -734.626431990397

DIPOLE MOMENT
-------------
                                X             Y             Z
Electronic contribution:    -11.77673       6.18775       0.00005
Nuclear contribution   :     12.51042      -6.90085      -0.00005
                        -----------------------------------------
Total Dipole Moment    :      0.73369      -0.71309      -0.00000
                        -----------------------------------------
Magnitude (a.u.)       :      1.02313
Magnitude (Debye)      :      2.60060

Rotational constants in cm-1:     0.067755     0.044025     0.040472
Rotational constants in MHz :  2031.229625  1319.827518  1213.334456

                             ****ORCA TERMINATED NORMALLY****
TOTAL RUN TIME: 0 days 0 hours 4 minutes 48 seconds 828 msec
