                         Program Version 4.1.x  -  STABLE  -
|  1> ! RHF DLPNO-CCSD(T) cc-pVDZ RIJK cc-pVTZ/JK cc-pVDZ/C
|  2> ! KDIIS SOSCF TightSCF TightPNO
|  3>
|  4> %pal nprocs 8 end
|  5>
|  6> %maxcore 8000
|  7>
|  8> %scf maxiter 300
|  9>      shift shift 0.2 erroff 0.1 end
| 10> end
| 11>
| 12> * xyzfile 0 1 tetraBn_ethene_C1_C2_syn.xyz
| 13>
| 14>
| 15>                          ****END OF INPUT****

CARTESIAN COORDINATES (ANGSTROEM)
---------------------------------
  C     -3.603110   -3.658580    2.229770
  C     -4.297850   -2.447790    2.186540
  C     -3.626430   -1.265000    1.861790
  C     -2.253780   -1.267300    1.576950
  C     -1.568110   -2.491240    1.621090
  C     -2.234010   -3.675290    1.945870
  C     -1.523840    0.034310    1.264870
  C     -0.676300   -0.000230   -0.000200
  C     -1.523670   -0.034840   -1.265390
  C     -2.253780    1.266680   -1.577410
  C     -3.626500    1.264280   -1.861900
  C     -4.298070    2.447010   -2.186590
  C     -3.603420    3.657830   -2.230080
  C     -2.234260    3.674650   -1.946510
  C     -1.568200    2.490670   -1.621800
  C      0.676030   -0.000070   -0.000100
  C      1.523580    0.035000   -1.265130
  C      2.254160   -1.266220   -1.577340
  C      3.626750   -1.263170   -1.862460
  C      4.298730   -2.445590   -2.187400
  C      3.604640   -3.656750   -2.230500
  C      2.235620   -3.674220   -1.946300
  C      1.569150   -2.490530   -1.621360
  C      1.523370   -0.034860    1.265090
  C      2.253220    1.266700    1.577580
  C      1.567630    2.490700    1.621340
  C      2.233430    3.674690    1.946570
  C      3.602350    3.657850    2.231310
  C      4.297010    2.447010    2.188450
  C      3.625700    1.264280    1.863240
  H      0.922620   -0.321530    2.132930
  H      2.273580   -0.827220    1.150300
  H      0.922850    0.321270   -2.133120
  H      2.273370    0.827750   -1.150280
  H     -0.922880   -0.321140   -2.133320
  H     -2.273720   -0.827380   -1.150790
  H     -0.923220    0.320770    2.132870
  H     -2.274000    0.826730    1.150120
  H      0.505350    2.516880    1.394020
  H      4.174710    0.326080    1.832540
  H      5.361300    2.420550    2.405680
  H      1.682820    4.610980    1.977130
  H      4.120740    4.578690    2.482580
  H      4.175310   -0.324710   -1.831580
  H      0.506790   -2.517200   -1.394480
  H      1.685460   -4.610760   -1.977060
  H      5.363100   -2.418650   -2.404210
  H      4.123560   -4.577360   -2.481550
  H     -4.175490    0.326080   -1.830750
  H     -0.505740    2.516850   -1.395390
  H     -1.683660    4.610930   -1.977590
  H     -5.362550    2.420550   -2.402910
  H     -4.122000    4.578670   -2.480960
  H     -0.505700   -2.517310    1.394450
  H     -4.175490   -0.326830    1.830820
  H     -5.362270   -2.421440    2.403130
  H     -1.683350   -4.611530    1.976750
  H     -4.121580   -4.579470    2.480700

 Total Charge           Charge          ....    0
 Multiplicity           Mult            ....    1
 Number of Electrons    NEL             ....  208
 Basis Dimension        Dim             ....  560

ORBITAL ENERGIES
----------------

  NO   OCC          E(Eh)            E(eV)
   0   2.0000     -11.245460      -306.0045
   1   2.0000     -11.245458      -306.0045
   2   2.0000     -11.245456      -306.0044
   3   2.0000     -11.245455      -306.0044
   4   2.0000     -11.243502      -305.9512
   5   2.0000     -11.242004      -305.9105
   6   2.0000     -11.239701      -305.8478
   7   2.0000     -11.239699      -305.8478
   8   2.0000     -11.239697      -305.8477
   9   2.0000     -11.239695      -305.8477
  10   2.0000     -11.239498      -305.8423
  11   2.0000     -11.239496      -305.8422
  12   2.0000     -11.239494      -305.8422
  13   2.0000     -11.239492      -305.8421
  14   2.0000     -11.237037      -305.7753
  15   2.0000     -11.237026      -305.7750
  16   2.0000     -11.236981      -305.7738
  17   2.0000     -11.236978      -305.7737
  18   2.0000     -11.236482      -305.7602
  19   2.0000     -11.236482      -305.7602
  20   2.0000     -11.236479      -305.7601
  21   2.0000     -11.236477      -305.7601
  22   2.0000     -11.235668      -305.7381
  23   2.0000     -11.235666      -305.7380
  24   2.0000     -11.235664      -305.7379
  25   2.0000     -11.235661      -305.7379
  26   2.0000     -11.234484      -305.7058
  27   2.0000     -11.234480      -305.7057
  28   2.0000     -11.234479      -305.7057
  29   2.0000     -11.234476      -305.7056
  30   2.0000      -1.160971       -31.5916
  31   2.0000      -1.152614       -31.3642
  32   2.0000      -1.149770       -31.2868
  33   2.0000      -1.149297       -31.2740
  34   2.0000      -1.115153       -30.3448
  35   2.0000      -1.064268       -28.9602
  36   2.0000      -1.042015       -28.3547
  37   2.0000      -1.036264       -28.1982
  38   2.0000      -1.012250       -27.5447
  39   2.0000      -1.010501       -27.4971
  40   2.0000      -1.010362       -27.4933
  41   2.0000      -1.010237       -27.4900
  42   2.0000      -1.006909       -27.3994
  43   2.0000      -0.966537       -26.3008
  44   2.0000      -0.937086       -25.4994
  45   2.0000      -0.917869       -24.9765
  46   2.0000      -0.877085       -23.8667
  47   2.0000      -0.824063       -22.4239
  48   2.0000      -0.824002       -22.4222
  49   2.0000      -0.823564       -22.4103
  50   2.0000      -0.822113       -22.3708
  51   2.0000      -0.805950       -21.9310
  52   2.0000      -0.801569       -21.8118
  53   2.0000      -0.793962       -21.6048
  54   2.0000      -0.784767       -21.3546
  55   2.0000      -0.703965       -19.1558
  56   2.0000      -0.694769       -18.9056
  57   2.0000      -0.691601       -18.8194
  58   2.0000      -0.687847       -18.7173
  59   2.0000      -0.673805       -18.3352
  60   2.0000      -0.660099       -17.9622
  61   2.0000      -0.641551       -17.4575
  62   2.0000      -0.637340       -17.3429
  63   2.0000      -0.634528       -17.2664
  64   2.0000      -0.630594       -17.1593
  65   2.0000      -0.629611       -17.1326
  66   2.0000      -0.623596       -16.9689
  67   2.0000      -0.619697       -16.8628
  68   2.0000      -0.618510       -16.8305
  69   2.0000      -0.587601       -15.9894
  70   2.0000      -0.583801       -15.8860
  71   2.0000      -0.581386       -15.8203
  72   2.0000      -0.580212       -15.7884
  73   2.0000      -0.576897       -15.6982
  74   2.0000      -0.575580       -15.6623
  75   2.0000      -0.565500       -15.3880
  76   2.0000      -0.563584       -15.3359
  77   2.0000      -0.557870       -15.1804
  78   2.0000      -0.543582       -14.7916
  79   2.0000      -0.540689       -14.7129
  80   2.0000      -0.525651       -14.3037
  81   2.0000      -0.514599       -14.0029
  82   2.0000      -0.511617       -13.9218
  83   2.0000      -0.493562       -13.4305
  84   2.0000      -0.491841       -13.3837
  85   2.0000      -0.490971       -13.3600
  86   2.0000      -0.490831       -13.3562
  87   2.0000      -0.486101       -13.2275
  88   2.0000      -0.482980       -13.1426
  89   2.0000      -0.482470       -13.1287
  90   2.0000      -0.481629       -13.1058
  91   2.0000      -0.478066       -13.0088
  92   2.0000      -0.477943       -13.0055
  93   2.0000      -0.473936       -12.8965
  94   2.0000      -0.454557       -12.3691
  95   2.0000      -0.345637        -9.4053
  96   2.0000      -0.334092        -9.0911
  97   2.0000      -0.333154        -9.0656
  98   2.0000      -0.331990        -9.0339
  99   2.0000      -0.328860        -8.9487
 100   2.0000      -0.325508        -8.8575
 101   2.0000      -0.325134        -8.8473
 102   2.0000      -0.323684        -8.8079
 103   2.0000      -0.316936        -8.6243
 104   0.0000       0.122582         3.3356
 105   0.0000       0.125276         3.4089
 106   0.0000       0.129879         3.5342
 107   0.0000       0.131669         3.5829
 108   0.0000       0.135833         3.6962

MULLIKEN ATOMIC CHARGES
-----------------------
   0 C :   -0.028493
   1 C :   -0.008207
   2 C :   -0.001854
   3 C :   -0.223421
   4 C :    0.014307
   5 C :   -0.006515
   6 C :    0.166941
   7 C :   -0.250374
   8 C :    0.166968
   9 C :   -0.223439
  10 C :   -0.001845
  11 C :   -0.008213
  12 C :   -0.028480
  13 C :   -0.006528
  14 C :    0.014302
  15 C :   -0.250493
  16 C :    0.166983
  17 C :   -0.223434
  18 C :   -0.001846
  19 C :   -0.008214
  20 C :   -0.028493
  21 C :   -0.006520
  22 C :    0.014300
  23 C :    0.166991
  24 C :   -0.223431
  25 C :    0.014281
  26 C :   -0.006522
  27 C :   -0.028485
  28 C :   -0.008210
  29 C :   -0.001853
  30 H :    0.052553
  31 H :    0.042235
  32 H :    0.052543
  33 H :    0.042231
  34 H :    0.052540
  35 H :    0.042221
  36 H :    0.052552
  37 H :    0.042236
  38 H :    0.028326
  39 H :    0.016944
  40 H :    0.024902
  41 H :    0.024091
  42 H :    0.023416
  43 H :    0.016948
  44 H :    0.028308
  45 H :    0.024090
  46 H :    0.024906
  47 H :    0.023420
  48 H :    0.016949
  49 H :    0.028308
  50 H :    0.024092
  51 H :    0.024906
  52 H :    0.023420
  53 H :    0.028306
  54 H :    0.016947
  55 H :    0.024902
  56 H :    0.024087
  57 H :    0.023420
Sum of atomic charges:   -0.0000000

LOEWDIN ATOMIC CHARGES
----------------------
   0 C :   -0.034667
   1 C :   -0.023355
   2 C :   -0.033420
   3 C :   -0.024349
   4 C :   -0.029787
   5 C :   -0.022808
   6 C :   -0.008584
   7 C :   -0.036703
   8 C :   -0.008578
   9 C :   -0.024350
  10 C :   -0.033419
  11 C :   -0.023356
  12 C :   -0.034668
  13 C :   -0.022810
  14 C :   -0.029782
  15 C :   -0.036717
  16 C :   -0.008586
  17 C :   -0.024353
  18 C :   -0.033413
  19 C :   -0.023357
  20 C :   -0.034670
  21 C :   -0.022810
  22 C :   -0.029791
  23 C :   -0.008585
  24 C :   -0.024352
  25 C :   -0.029793
  26 C :   -0.022811
  27 C :   -0.034671
  28 C :   -0.023356
  29 C :   -0.033413
  30 H :    0.030254
  31 H :    0.031979
  32 H :    0.030252
  33 H :    0.031979
  34 H :    0.030253
  35 H :    0.031978
  36 H :    0.030257
  37 H :    0.031980
  38 H :    0.025933
  39 H :    0.025480
  40 H :    0.027614
  41 H :    0.027652
  42 H :    0.026418
  43 H :    0.025481
  44 H :    0.025931
  45 H :    0.027651
  46 H :    0.027616
  47 H :    0.026420
  48 H :    0.025479
  49 H :    0.025930
  50 H :    0.027653
  51 H :    0.027615
  52 H :    0.026420
  53 H :    0.025928
  54 H :    0.025479
  55 H :    0.027613
  56 H :    0.027650
  57 H :    0.026419

  Mayer bond orders larger than 0.1
B(  0-C ,  1-C ) :   1.4619 B(  0-C ,  5-C ) :   1.4462 B(  0-C , 57-H ) :   0.9771
B(  1-C ,  2-C ) :   1.4596 B(  1-C , 55-H ) :   0.9739 B(  2-C ,  3-C ) :   1.4510
B(  2-C , 54-H ) :   0.9689 B(  3-C ,  4-C ) :   1.4216 B(  3-C ,  6-C ) :   1.0579
B(  4-C ,  5-C ) :   1.4769 B(  4-C , 53-H ) :   0.9634 B(  5-C , 56-H ) :   0.9746
B(  6-C ,  7-C ) :   1.0706 B(  6-C , 36-H ) :   0.9377 B(  6-C , 37-H ) :   0.9398
B(  7-C ,  8-C ) :   1.0706 B(  7-C , 15-C ) :   1.8459 B(  8-C ,  9-C ) :   1.0579
B(  8-C , 34-H ) :   0.9377 B(  8-C , 35-H ) :   0.9398 B(  9-C , 10-C ) :   1.4510
B(  9-C , 14-C ) :   1.4216 B( 10-C , 11-C ) :   1.4596 B( 10-C , 48-H ) :   0.9689
B( 11-C , 12-C ) :   1.4619 B( 11-C , 51-H ) :   0.9739 B( 12-C , 13-C ) :   1.4462
B( 12-C , 52-H ) :   0.9771 B( 13-C , 14-C ) :   1.4769 B( 13-C , 50-H ) :   0.9746
B( 14-C , 49-H ) :   0.9634 B( 15-C , 16-C ) :   1.0706 B( 15-C , 23-C ) :   1.0706
B( 16-C , 17-C ) :   1.0579 B( 16-C , 32-H ) :   0.9377 B( 16-C , 33-H ) :   0.9398
B( 17-C , 18-C ) :   1.4510 B( 17-C , 22-C ) :   1.4216 B( 18-C , 19-C ) :   1.4596
B( 18-C , 43-H ) :   0.9689 B( 19-C , 20-C ) :   1.4619 B( 19-C , 46-H ) :   0.9739
B( 20-C , 21-C ) :   1.4462 B( 20-C , 47-H ) :   0.9771 B( 21-C , 22-C ) :   1.4769
B( 21-C , 45-H ) :   0.9746 B( 22-C , 44-H ) :   0.9634 B( 23-C , 24-C ) :   1.0579
B( 23-C , 30-H ) :   0.9376 B( 23-C , 31-H ) :   0.9398 B( 24-C , 25-C ) :   1.4216
B( 24-C , 29-C ) :   1.4510 B( 25-C , 26-C ) :   1.4769 B( 25-C , 38-H ) :   0.9634
B( 26-C , 27-C ) :   1.4462 B( 26-C , 41-H ) :   0.9746 B( 27-C , 28-C ) :   1.4619
B( 27-C , 42-H ) :   0.9771 B( 28-C , 29-C ) :   1.4596 B( 28-C , 40-H ) :   0.9739
B( 29-C , 39-H ) :   0.9689

E(0)                                       ...  -1152.441594557
E(0)                                       ...  -1152.441594557
E(CORR)(strong-pairs)                      ...     -4.132433325
E(CORR)(weak-pairs)                        ...     -0.007302419
E(CORR)(corrected)                         ...     -4.139735743
E(TOT)                                     ...  -1156.581330301
E(CCSD(T))                                 ...  -1156.755823565
FINAL SINGLE POINT ENERGY     -1156.755823565038

DIPOLE MOMENT
-------------
                                X             Y             Z
Electronic contribution:      0.00004      -0.00020      -0.00007
Nuclear contribution   :     -0.00011       0.00023       0.00003
                        -----------------------------------------
Total Dipole Moment    :     -0.00007       0.00003      -0.00003
                        -----------------------------------------
Magnitude (a.u.)       :      0.00008
Magnitude (Debye)      :      0.00020

Rotational constants in cm-1:     0.004812     0.003824     0.003114
Rotational constants in MHz :   144.255765   114.643628    93.358427

                             ****ORCA TERMINATED NORMALLY****
TOTAL RUN TIME: 0 days 0 hours 51 minutes 55 seconds 931 msec
