                         Program Version 4.1.x  -  STABLE  -
|  1> ! RHF DLPNO-CCSD(T) cc-pVDZ RIJK cc-pVTZ/JK cc-pVDZ/C
|  2> ! KDIIS SOSCF TightSCF TightPNO
|  3>
|  4> %pal nprocs 8 end
|  5>
|  6> %maxcore 8000
|  7>
|  8> %scf maxiter 300
|  9>      shift shift 0.2 erroff 0.1 end
| 10> end
| 11>
| 12> * xyzfile 0 1 tetraBn-ethene-C1-C1-syn.xyz
| 13>
| 14>
| 15>                          ****END OF INPUT****

CARTESIAN COORDINATES (ANGSTROEM)
---------------------------------
  C     -0.505310    0.140010    0.393840
  C      0.526580   -0.180870   -0.420420
  C      1.303070    0.853850   -1.227180
  C      2.458560    1.587880   -0.546840
  C      0.962060   -1.621590   -0.674420
  C      2.396610   -1.943870   -0.279330
  C     -1.288630   -0.891320    1.198420
  C     -2.471140   -1.585050    0.522650
  C     -0.930830    1.581960    0.652690
  C     -2.370910    1.913930    0.286610
  C      2.607910    1.665260    0.842400
  C      3.393800    2.258690   -1.351820
  C      4.442050    2.986890   -0.788480
  C      3.658090    2.392850    1.412710
  C      4.578380    3.058060    0.601600
  C      3.382620   -2.170320   -1.248100
  C      2.758460   -2.047460    1.072740
  C      4.065200   -2.364830    1.444990
  C      4.695280   -2.484280   -0.881760
  C      5.041230   -2.582250    0.467060
  C     -3.488850   -2.124220    1.325510
  C     -2.561230   -1.761390   -0.863440
  C     -3.631000   -2.460810   -1.431070
  C     -4.558350   -2.823810    0.764580
  C     -4.633010   -2.997380   -0.620760
  C     -2.783890    1.929310   -1.054550
  C     -3.309120    2.244580    1.272760
  C     -4.624870    2.576790    0.934460
  C     -4.094000    2.263330   -1.399020
  C     -5.021930    2.587080   -0.403700
  H      1.709060    0.359480   -2.117980
  H      0.610890    1.612420   -1.614120
  H      0.290330   -2.321360   -0.172490
  H      0.851680   -1.822580   -1.749060
  H     -0.607610   -1.672690    1.558540
  H     -1.667550   -0.403590    2.104390
  H     -0.798210    1.783430    1.724710
  H     -0.264250    2.278230    0.138610
  H      1.906580    1.144000    1.485470
  H      3.299750    2.206610   -2.434610
  H      5.153760    3.494930   -1.433490
  H      3.755880    2.434300    2.494150
  H      5.394460    3.621780    1.044380
  H      3.121390   -2.106650   -2.301930
  H      2.008260   -1.877120    1.841180
  H      4.322980   -2.442170    2.497680
  H      5.443900   -2.654110   -1.650640
  H      6.059280   -2.827730    0.755210
  H     -3.443920   -1.990660    2.404270
  H     -1.797300   -1.338730   -1.507630
  H     -3.680410   -2.581650   -2.509880
  H     -5.334840   -3.228390    1.408020
  H     -5.464900   -3.539000   -1.061690
  H     -2.072340    1.673810   -1.835870
  H     -3.007020    2.248160    2.317640
  H     -5.335910    2.828070    1.716620
  H     -4.392470    2.269570   -2.443730
  H     -6.042650    2.845370   -0.670440

 Total Charge           Charge          ....    0
 Multiplicity           Mult            ....    1
 Number of Electrons    NEL             ....  208
 Basis Dimension        Dim             ....  560

ORBITAL ENERGIES
----------------

  NO   OCC          E(Eh)            E(eV)
   0   2.0000     -11.243780      -305.9588
   1   2.0000     -11.242963      -305.9366
   2   2.0000     -11.242825      -305.9328
   3   2.0000     -11.242712      -305.9298
   4   2.0000     -11.242295      -305.9184
   5   2.0000     -11.242094      -305.9129
   6   2.0000     -11.240165      -305.8604
   7   2.0000     -11.240119      -305.8592
   8   2.0000     -11.238585      -305.8175
   9   2.0000     -11.237629      -305.7914
  10   2.0000     -11.236954      -305.7731
  11   2.0000     -11.236694      -305.7660
  12   2.0000     -11.236142      -305.7510
  13   2.0000     -11.235922      -305.7450
  14   2.0000     -11.234801      -305.7145
  15   2.0000     -11.234780      -305.7139
  16   2.0000     -11.234240      -305.6992
  17   2.0000     -11.233977      -305.6921
  18   2.0000     -11.233923      -305.6906
  19   2.0000     -11.233745      -305.6857
  20   2.0000     -11.233318      -305.6741
  21   2.0000     -11.233274      -305.6729
  22   2.0000     -11.233031      -305.6663
  23   2.0000     -11.232316      -305.6468
  24   2.0000     -11.231216      -305.6169
  25   2.0000     -11.231051      -305.6124
  26   2.0000     -11.230949      -305.6097
  27   2.0000     -11.230871      -305.6075
  28   2.0000     -11.228941      -305.5550
  29   2.0000     -11.228541      -305.5441
  30   2.0000      -1.158385       -31.5213
  31   2.0000      -1.149547       -31.2808
  32   2.0000      -1.145630       -31.1742
  33   2.0000      -1.145125       -31.1604
  34   2.0000      -1.113770       -30.3072
  35   2.0000      -1.060321       -28.8528
  36   2.0000      -1.040453       -28.3122
  37   2.0000      -1.033432       -28.1211
  38   2.0000      -1.009342       -27.4656
  39   2.0000      -1.008174       -27.4338
  40   2.0000      -1.007141       -27.4057
  41   2.0000      -1.005498       -27.3610
  42   2.0000      -1.003796       -27.3147
  43   2.0000      -0.966548       -26.3011
  44   2.0000      -0.934882       -25.4394
  45   2.0000      -0.916617       -24.9424
  46   2.0000      -0.876138       -23.8409
  47   2.0000      -0.822399       -22.3786
  48   2.0000      -0.821155       -22.3448
  49   2.0000      -0.819842       -22.3090
  50   2.0000      -0.816931       -22.2298
  51   2.0000      -0.806076       -21.9345
  52   2.0000      -0.796059       -21.6619
  53   2.0000      -0.788521       -21.4567
  54   2.0000      -0.784679       -21.3522
  55   2.0000      -0.703977       -19.1562
  56   2.0000      -0.687343       -18.7035
  57   2.0000      -0.687083       -18.6965
  58   2.0000      -0.686300       -18.6752
  59   2.0000      -0.677302       -18.4303
  60   2.0000      -0.656398       -17.8615
  61   2.0000      -0.638798       -17.3826
  62   2.0000      -0.634558       -17.2672
  63   2.0000      -0.632613       -17.2143
  64   2.0000      -0.625644       -17.0246
  65   2.0000      -0.624598       -16.9962
  66   2.0000      -0.617731       -16.8093
  67   2.0000      -0.616243       -16.7688
  68   2.0000      -0.614449       -16.7200
  69   2.0000      -0.587873       -15.9968
  70   2.0000      -0.581147       -15.8138
  71   2.0000      -0.578917       -15.7531
  72   2.0000      -0.577523       -15.7152
  73   2.0000      -0.575896       -15.6709
  74   2.0000      -0.570174       -15.5152
  75   2.0000      -0.565026       -15.3751
  76   2.0000      -0.560509       -15.2522
  77   2.0000      -0.555275       -15.1098
  78   2.0000      -0.548639       -14.9292
  79   2.0000      -0.536769       -14.6062
  80   2.0000      -0.524514       -14.2728
  81   2.0000      -0.518802       -14.1173
  82   2.0000      -0.504172       -13.7192
  83   2.0000      -0.494838       -13.4652
  84   2.0000      -0.490076       -13.3357
  85   2.0000      -0.488993       -13.3062
  86   2.0000      -0.484691       -13.1891
  87   2.0000      -0.483999       -13.1703
  88   2.0000      -0.480941       -13.0871
  89   2.0000      -0.480199       -13.0669
  90   2.0000      -0.478401       -13.0179
  91   2.0000      -0.475319       -12.9341
  92   2.0000      -0.475170       -12.9300
  93   2.0000      -0.471744       -12.8368
  94   2.0000      -0.451905       -12.2970
  95   2.0000      -0.343744        -9.3537
  96   2.0000      -0.333351        -9.0709
  97   2.0000      -0.330687        -8.9985
  98   2.0000      -0.326729        -8.8908
  99   2.0000      -0.326174        -8.8756
 100   2.0000      -0.323540        -8.8040
 101   2.0000      -0.323160        -8.7936
 102   2.0000      -0.311429        -8.4744
 103   2.0000      -0.310049        -8.4369
 104   0.0000       0.122521         3.3340
 105   0.0000       0.127484         3.4690
 106   0.0000       0.128816         3.5052
 107   0.0000       0.132152         3.5960
 108   0.0000       0.143270         3.8986

MULLIKEN ATOMIC CHARGES
-----------------------
   0 C :   -0.241926
   1 C :   -0.236643
   2 C :    0.159889
   3 C :   -0.186961
   4 C :    0.132742
   5 C :   -0.196151
   6 C :    0.161846
   7 C :   -0.186969
   8 C :    0.146577
   9 C :   -0.207732
  10 C :    0.016273
  11 C :   -0.010592
  12 C :   -0.007093
  13 C :    0.001378
  14 C :   -0.028656
  15 C :    0.006844
  16 C :    0.016879
  17 C :   -0.004975
  18 C :   -0.005199
  19 C :   -0.025886
  20 C :   -0.007879
  21 C :    0.012677
  22 C :    0.001341
  23 C :   -0.006929
  24 C :   -0.028256
  25 C :    0.024819
  26 C :    0.006400
  27 C :   -0.006289
  28 C :   -0.004385
  29 C :   -0.026119
  30 H :    0.038467
  31 H :    0.060973
  32 H :    0.051039
  33 H :    0.029395
  34 H :    0.062287
  35 H :    0.035244
  36 H :    0.027688
  37 H :    0.054403
  38 H :    0.023715
  39 H :    0.006346
  40 H :    0.022879
  41 H :    0.020532
  42 H :    0.020585
  43 H :    0.009797
  44 H :    0.012513
  45 H :    0.022424
  46 H :    0.023702
  47 H :    0.023023
  48 H :    0.007316
  49 H :    0.024543
  50 H :    0.020162
  51 H :    0.022886
  52 H :    0.020706
  53 H :    0.012755
  54 H :    0.009430
  55 H :    0.023152
  56 H :    0.022370
  57 H :    0.022645
Sum of atomic charges:    0.0000000

LOEWDIN ATOMIC CHARGES
----------------------
   0 C :   -0.034875
   1 C :   -0.035988
   2 C :   -0.014199
   3 C :   -0.020872
   4 C :   -0.009399
   5 C :   -0.023786
   6 C :   -0.013059
   7 C :   -0.019818
   8 C :   -0.008394
   9 C :   -0.024486
  10 C :   -0.027793
  11 C :   -0.030200
  12 C :   -0.023793
  13 C :   -0.022690
  14 C :   -0.035897
  15 C :   -0.031571
  16 C :   -0.023473
  17 C :   -0.021325
  18 C :   -0.021352
  19 C :   -0.031272
  20 C :   -0.029534
  21 C :   -0.028754
  22 C :   -0.023224
  23 C :   -0.023222
  24 C :   -0.035607
  25 C :   -0.021946
  26 C :   -0.032685
  27 C :   -0.022412
  28 C :   -0.020742
  29 C :   -0.031535
  30 H :    0.029208
  31 H :    0.032032
  32 H :    0.032575
  33 H :    0.027996
  34 H :    0.031725
  35 H :    0.029027
  36 H :    0.028400
  37 H :    0.033630
  38 H :    0.022879
  39 H :    0.022929
  40 H :    0.026739
  41 H :    0.026190
  42 H :    0.025406
  43 H :    0.022116
  44 H :    0.022539
  45 H :    0.027103
  46 H :    0.027357
  47 H :    0.026439
  48 H :    0.023085
  49 H :    0.023010
  50 H :    0.026095
  51 H :    0.026818
  52 H :    0.025442
  53 H :    0.022644
  54 H :    0.022111
  55 H :    0.027048
  56 H :    0.027094
  57 H :    0.026266

  Mayer bond orders larger than 0.1
B(  0-C ,  1-C ) :   1.8467 B(  0-C ,  6-C ) :   1.0596 B(  0-C ,  8-C ) :   1.0736
B(  1-C ,  2-C ) :   1.0579 B(  1-C ,  4-C ) :   1.0709 B(  2-C ,  3-C ) :   1.0427
B(  2-C , 30-H ) :   0.9422 B(  2-C , 31-H ) :   0.9340 B(  3-C , 10-C ) :   1.4472
B(  3-C , 11-C ) :   1.4346 B(  4-C ,  5-C ) :   1.0653 B(  4-C , 32-H ) :   0.9440
B(  4-C , 33-H ) :   0.9425 B(  5-C , 15-C ) :   1.4500 B(  5-C , 16-C ) :   1.4208
B(  6-C ,  7-C ) :   1.0455 B(  6-C , 34-H ) :   0.9323 B(  6-C , 35-H ) :   0.9432
B(  7-C , 20-C ) :   1.4396 B(  7-C , 21-C ) :   1.4421 B(  8-C ,  9-C ) :   1.0647
B(  8-C , 36-H ) :   0.9412 B(  8-C , 37-H ) :   0.9418 B(  9-C , 25-C ) :   1.4195
B(  9-C , 26-C ) :   1.4518 B( 10-C , 13-C ) :   1.4563 B( 10-C , 38-H ) :   0.9610
B( 11-C , 12-C ) :   1.4817 B( 11-C , 39-H ) :   0.9740 B( 12-C , 14-C ) :   1.4425
B( 12-C , 40-H ) :   0.9731 B( 13-C , 14-C ) :   1.4665 B( 13-C , 41-H ) :   0.9729
B( 14-C , 42-H ) :   0.9765 B( 15-C , 18-C ) :   1.4546 B( 15-C , 43-H ) :   0.9691
B( 16-C , 17-C ) :   1.4817 B( 16-C , 44-H ) :   0.9677 B( 17-C , 19-C ) :   1.4421
B( 17-C , 45-H ) :   0.9743 B( 18-C , 19-C ) :   1.4670 B( 18-C , 46-H ) :   0.9735
B( 19-C , 47-H ) :   0.9768 B( 20-C , 23-C ) :   1.4778 B( 20-C , 48-H ) :   0.9727
B( 21-C , 22-C ) :   1.4605 B( 21-C , 49-H ) :   0.9608 B( 22-C , 24-C ) :   1.4626
B( 22-C , 50-H ) :   0.9730 B( 23-C , 24-C ) :   1.4462 B( 23-C , 51-H ) :   0.9731
B( 24-C , 52-H ) :   0.9765 B( 25-C , 28-C ) :   1.4824 B( 25-C , 53-H ) :   0.9669
B( 26-C , 27-C ) :   1.4542 B( 26-C , 54-H ) :   0.9687 B( 27-C , 29-C ) :   1.4676
B( 27-C , 55-H ) :   0.9736 B( 28-C , 29-C ) :   1.4416 B( 28-C , 56-H ) :   0.9743
B( 29-C , 57-H ) :   0.9768

E(0)                                       ...  -1152.430353440
E(0)                                       ...  -1152.430353440
E(CORR)(strong-pairs)                      ...     -4.136000184
E(CORR)(weak-pairs)                        ...     -0.006847515
E(CORR)(corrected)                         ...     -4.142847699
E(TOT)                                     ...  -1156.573201138
E(CCSD(T))                                 ...  -1156.748107926
FINAL SINGLE POINT ENERGY     -1156.748107925780

DIPOLE MOMENT
-------------
                                X             Y             Z
Electronic contribution:     -0.01153      -0.00421       0.01264
Nuclear contribution   :      0.01895      -0.00628      -0.01277
                        -----------------------------------------
Total Dipole Moment    :      0.00741      -0.01050      -0.00013
                        -----------------------------------------
Magnitude (a.u.)       :      0.01285
Magnitude (Debye)      :      0.03266

Rotational constants in cm-1:     0.007618     0.003444     0.002691
Rotational constants in MHz :   228.384080   103.256947    80.680992

                             ****ORCA TERMINATED NORMALLY****
TOTAL RUN TIME: 0 days 0 hours 58 minutes 31 seconds 315 msec
