                         Program Version 4.1.x  -  STABLE  -
|  1> ! RHF DLPNO-CCSD(T) cc-pVDZ RIJK cc-pVTZ/JK cc-pVDZ/C
|  2> ! KDIIS SOSCF TightSCF TightPNO
|  3>
|  4> %pal nprocs 8 end
|  5>
|  6> %maxcore 8000
|  7>
|  8> %scf maxiter 300
|  9>      shift shift 0.2 erroff 0.1 end
| 10> end
| 11>
| 12> * xyzfile 0 1 tgctgr180180.xyz
| 13>
| 14>
| 15>                          ****END OF INPUT****

CARTESIAN COORDINATES (ANGSTROEM)
---------------------------------
  C     -3.535500    0.230900    0.002700
  H     -4.140500   -0.218700    0.805100
  O     -4.367800    1.041100   -0.830200
  C     -2.877800   -0.889300   -0.791700
  C     -2.462800    1.124300    0.637200
  C     -3.042700    2.210100    1.548700
  H     -1.868300    1.604000   -0.148900
  O     -1.612400    0.303700    1.464100
  O     -3.924100   -1.716300   -1.300700
  C     -1.926600   -1.671400    0.109200
  H     -2.308800   -0.452500   -1.624700
  H     -2.514200   -2.132100    0.918200
  C     -0.920100   -0.719400    0.798100
  O     -1.330600   -2.682800   -0.695300
  O     -0.006800   -0.079600   -0.100300
  H     -0.368100   -1.250900    1.576300
  C      0.942400   -0.778600   -0.898200
  H      0.440100   -1.332100   -1.694400
  O      1.715400    0.204400   -1.547600
  C      1.903600   -1.703800   -0.123800
  C      2.489500    1.056100   -0.682600
  O      1.189500   -2.756200    0.534300
  C      2.739500   -0.901000    0.862900
  H      2.572600   -2.144500   -0.876100
  H      2.086500   -0.442200    1.618200
  O      3.627700   -1.826000    1.490900
  H      1.828100    1.597500    0.003600
  C      3.166600    2.040500   -1.633800
  C      3.487300    0.213900    0.136100
  O      4.155200    0.966100    1.142000
  H      4.218200   -0.242900   -0.551200
  H     -3.739200    1.753700    2.269400
  O     -3.664600    3.252100    0.812100
  H     -2.224200    2.663700    2.113900
  O      4.025900    2.885000   -0.853700
  H      2.398700    2.629600   -2.148500
  H      3.744400    1.481000   -2.381700
  H     -4.275000    2.844400    0.177700
  H      4.463400    3.524000   -1.429100
  H     -0.595300   -3.094000   -0.208600
  H     -3.515700   -2.476300   -1.739500
  H     -4.962900    0.450400   -1.314800
  H      1.824200   -3.217200    1.104400
  H      4.201200   -1.326700    2.090000
  H      4.494900    1.777200    0.729200

 Total Charge           Charge          ....    0
 Multiplicity           Mult            ....    1
 Number of Electrons    NEL             ....  182
 Basis Dimension        Dim             ....  432

ORBITAL ENERGIES
----------------

  NO   OCC          E(Eh)            E(eV)
   0   2.0000     -20.590808      -560.3044
   1   2.0000     -20.586654      -560.1913
   2   2.0000     -20.581957      -560.0635
   3   2.0000     -20.574822      -559.8694
   4   2.0000     -20.573076      -559.8219
   5   2.0000     -20.572906      -559.8172
   6   2.0000     -20.568965      -559.7100
   7   2.0000     -20.566209      -559.6350
   8   2.0000     -20.563937      -559.5732
   9   2.0000     -20.559874      -559.4626
  10   2.0000     -20.532648      -558.7218
  11   2.0000     -11.356332      -309.0215
  12   2.0000     -11.349997      -308.8491
  13   2.0000     -11.305346      -307.6341
  14   2.0000     -11.301304      -307.5241
  15   2.0000     -11.297748      -307.4273
  16   2.0000     -11.295392      -307.3632
  17   2.0000     -11.293515      -307.3122
  18   2.0000     -11.293051      -307.2995
  19   2.0000     -11.288210      -307.1678
  20   2.0000     -11.286574      -307.1233
  21   2.0000     -11.282764      -307.0196
  22   2.0000     -11.268498      -306.6314
  23   2.0000      -1.445612       -39.3371
  24   2.0000      -1.408780       -38.3349
  25   2.0000      -1.396382       -37.9975
  26   2.0000      -1.386519       -37.7291
  27   2.0000      -1.382290       -37.6140
  28   2.0000      -1.374588       -37.4044
  29   2.0000      -1.369158       -37.2567
  30   2.0000      -1.353212       -36.8228
  31   2.0000      -1.349540       -36.7229
  32   2.0000      -1.340601       -36.4796
  33   2.0000      -1.332552       -36.2606
  34   2.0000      -1.067940       -29.0601
  35   2.0000      -1.061699       -28.8903
  36   2.0000      -1.060465       -28.8567
  37   2.0000      -1.032453       -28.0945
  38   2.0000      -0.947981       -25.7959
  39   2.0000      -0.924378       -25.1536
  40   2.0000      -0.891997       -24.2725
  41   2.0000      -0.867274       -23.5997
  42   2.0000      -0.847828       -23.0706
  43   2.0000      -0.837683       -22.7945
  44   2.0000      -0.811283       -22.0761
  45   2.0000      -0.775821       -21.1112
  46   2.0000      -0.755956       -20.5706
  47   2.0000      -0.736453       -20.0399
  48   2.0000      -0.723061       -19.6755
  49   2.0000      -0.720442       -19.6042
  50   2.0000      -0.713873       -19.4255
  51   2.0000      -0.705227       -19.1902
  52   2.0000      -0.699828       -19.0433
  53   2.0000      -0.685916       -18.6647
  54   2.0000      -0.672719       -18.3056
  55   2.0000      -0.669675       -18.2228
  56   2.0000      -0.657292       -17.8858
  57   2.0000      -0.653905       -17.7937
  58   2.0000      -0.646382       -17.5889
  59   2.0000      -0.634713       -17.2714
  60   2.0000      -0.633258       -17.2318
  61   2.0000      -0.618505       -16.8304
  62   2.0000      -0.606004       -16.4902
  63   2.0000      -0.599535       -16.3142
  64   2.0000      -0.598122       -16.2757
  65   2.0000      -0.593498       -16.1499
  66   2.0000      -0.583449       -15.8765
  67   2.0000      -0.572508       -15.5787
  68   2.0000      -0.569770       -15.5042
  69   2.0000      -0.561270       -15.2729
  70   2.0000      -0.557228       -15.1629
  71   2.0000      -0.551717       -15.0130
  72   2.0000      -0.544161       -14.8074
  73   2.0000      -0.537478       -14.6255
  74   2.0000      -0.532378       -14.4867
  75   2.0000      -0.523468       -14.2443
  76   2.0000      -0.513367       -13.9694
  77   2.0000      -0.501978       -13.6595
  78   2.0000      -0.493968       -13.4415
  79   2.0000      -0.491967       -13.3871
  80   2.0000      -0.476298       -12.9607
  81   2.0000      -0.470930       -12.8147
  82   2.0000      -0.467596       -12.7239
  83   2.0000      -0.459802       -12.5119
  84   2.0000      -0.444571       -12.0974
  85   2.0000      -0.442348       -12.0369
  86   2.0000      -0.438530       -11.9330
  87   2.0000      -0.435860       -11.8603
  88   2.0000      -0.427586       -11.6352
  89   2.0000      -0.421652       -11.4737
  90   2.0000      -0.409095       -11.1321
  91   0.0000       0.162537         4.4229
  92   0.0000       0.177477         4.8294
  93   0.0000       0.183990         5.0066
  94   0.0000       0.192973         5.2511
  95   0.0000       0.198310         5.3963

MULLIKEN ATOMIC CHARGES
-----------------------
   0 C :    0.200025
   1 H :    0.026899
   2 O :   -0.413317
   3 C :    0.197682
   4 C :    0.103298
   5 C :    0.294993
   6 H :    0.050932
   7 O :   -0.503544
   8 O :   -0.409806
   9 C :    0.161142
  10 H :    0.033860
  11 H :    0.031894
  12 C :    0.450693
  13 O :   -0.416127
  14 O :   -0.543295
  15 H :    0.048609
  16 C :    0.468499
  17 H :    0.059560
  18 O :   -0.510937
  19 C :    0.167227
  20 C :    0.114010
  21 O :   -0.423691
  22 C :    0.192450
  23 H :    0.042391
  24 H :    0.041774
  25 O :   -0.412813
  26 H :    0.060469
  27 C :    0.259047
  28 C :    0.185976
  29 O :   -0.407905
  30 H :    0.019099
  31 H :    0.014158
  32 O :   -0.409741
  33 H :    0.042760
  34 O :   -0.414713
  35 H :    0.048584
  36 H :    0.033597
  37 H :    0.181152
  38 H :    0.182563
  39 H :    0.199124
  40 H :    0.183706
  41 H :    0.189602
  42 H :    0.199093
  43 H :    0.188192
  44 H :    0.192827
Sum of atomic charges:   -0.0000000

LOEWDIN ATOMIC CHARGES
----------------------
   0 C :    0.004493
   1 H :    0.012161
   2 O :   -0.065124
   3 C :   -0.000229
   4 C :    0.010997
   5 C :    0.027898
   6 H :    0.018439
   7 O :   -0.053509
   8 O :   -0.075268
   9 C :   -0.015564
  10 H :    0.016227
  11 H :    0.018437
  12 C :    0.023327
  13 O :   -0.073442
  14 O :   -0.080414
  15 H :    0.011801
  16 C :    0.032129
  17 H :    0.018328
  18 O :   -0.055414
  19 C :   -0.001759
  20 C :    0.009957
  21 O :   -0.060215
  22 C :    0.000230
  23 H :    0.023514
  24 H :    0.018940
  25 O :   -0.075143
  26 H :    0.021901
  27 C :    0.037349
  28 C :   -0.004154
  29 O :   -0.076667
  30 H :    0.009467
  31 H :    0.006262
  32 O :   -0.082493
  33 H :    0.024235
  34 O :   -0.077434
  35 H :    0.020783
  36 H :    0.011869
  37 H :    0.038572
  38 H :    0.058119
  39 H :    0.039059
  40 H :    0.056872
  41 H :    0.059404
  42 H :    0.063221
  43 H :    0.060806
  44 H :    0.042031

  Mayer bond orders larger than 0.1
B(  0-C ,  1-H ) :   0.9447 B(  0-C ,  2-O ) :   0.9518 B(  0-C ,  3-C ) :   1.0234
B(  0-C ,  4-C ) :   0.9907 B(  2-O , 41-H ) :   0.9808 B(  3-C ,  8-O ) :   0.9794
B(  3-C ,  9-C ) :   1.0038 B(  3-C , 10-H ) :   0.9481 B(  4-C ,  5-C ) :   1.0559
B(  4-C ,  6-H ) :   0.9465 B(  4-C ,  7-O ) :   0.8909 B(  5-C , 31-H ) :   0.9595
B(  5-C , 32-O ) :   1.0010 B(  5-C , 33-H ) :   0.9684 B(  7-O , 12-C ) :   1.0128
B(  8-O , 40-H ) :   0.9872 B(  9-C , 11-H ) :   0.9486 B(  9-C , 12-C ) :   1.0115
B(  9-C , 13-O ) :   0.9917 B( 12-C , 14-O ) :   0.8966 B( 12-C , 15-H ) :   0.9636
B( 13-O , 39-H ) :   0.9568 B( 14-O , 16-C ) :   0.9228 B( 16-C , 17-H ) :   0.9662
B( 16-C , 18-O ) :   0.9958 B( 16-C , 19-C ) :   1.0245 B( 18-O , 20-C ) :   0.9012
B( 19-C , 21-O ) :   0.9348 B( 19-C , 22-C ) :   1.0043 B( 19-C , 23-H ) :   0.9545
B( 20-C , 26-H ) :   0.9454 B( 20-C , 27-C ) :   1.0694 B( 20-C , 28-C ) :   0.9806
B( 21-O , 42-H ) :   0.9724 B( 22-C , 24-H ) :   0.9478 B( 22-C , 25-O ) :   0.9767
B( 22-C , 28-C ) :   1.0217 B( 25-O , 43-H ) :   0.9853 B( 27-C , 34-O ) :   0.9674
B( 27-C , 35-H ) :   0.9704 B( 27-C , 36-H ) :   0.9599 B( 28-C , 29-O ) :   1.0019
B( 28-C , 30-H ) :   0.9418 B( 29-O , 44-H ) :   0.9675 B( 32-O , 37-H ) :   0.9808
B( 34-O , 38-H ) :   0.9877

E(0)                                       ...  -1290.764751799
E(0)                                       ...  -1290.764751799
E(CORR)(strong-pairs)                      ...     -3.830361618
E(CORR)(weak-pairs)                        ...     -0.005116592
E(CORR)(corrected)                         ...     -3.835478210
E(TOT)                                     ...  -1294.600230009
E(CCSD(T))                                 ...  -1294.708134787
FINAL SINGLE POINT ENERGY     -1294.708134786653

DIPOLE MOMENT
-------------
                                X             Y             Z
Electronic contribution:     -0.20062      -2.81192      -0.01002
Nuclear contribution   :      1.75460       1.98598      -0.70892
                        -----------------------------------------
Total Dipole Moment    :      1.55397      -0.82594      -0.71895
                        -----------------------------------------
Magnitude (a.u.)       :      1.90103
Magnitude (Debye)      :      4.83202

Rotational constants in cm-1:     0.012420     0.005265     0.004377
Rotational constants in MHz :   372.328798   157.845617   131.223170

                             ****ORCA TERMINATED NORMALLY****
TOTAL RUN TIME: 0 days 0 hours 24 minutes 34 seconds 756 msec
