                         Program Version 4.1.x  -  STABLE  -
|  1> ! RHF DLPNO-CCSD(T) cc-pVDZ RIJK cc-pVTZ/JK cc-pVDZ/C
|  2> ! KDIIS SOSCF TightSCF TightPNO
|  3>
|  4> %pal nprocs 4 end
|  5>
|  6> %maxcore 8000
|  7>
|  8> %scf maxiter 300
|  9>      shift shift 0.2 erroff 0.1 end
| 10> end
| 11>
| 12> * xyzfile 0 1 thiacyclohexane_twb.xyz
| 13>
| 14>
| 15>                          ****END OF INPUT****

CARTESIAN COORDINATES (ANGSTROEM)
---------------------------------
  C      0.359450   -1.362200   -0.371770
  S      1.553520   -0.000020   -0.000010
  C      0.359510    1.362170    0.371800
  C     -0.937240    1.222440   -0.429150
  C     -1.780900    0.000030   -0.000030
  C     -0.937300   -1.222400    0.429170
  H      0.882510    2.287710    0.115930
  H      0.153350    1.383100    1.447630
  H     -1.533030    2.136700   -0.313680
  H     -0.681600    1.152340   -1.493200
  H     -2.439700   -0.279820   -0.831350
  H     -2.439770    0.279880    0.831230
  H     -1.533120   -2.136640    0.313740
  H     -0.681700   -1.152240    1.493230
  H      0.153290   -1.383160   -1.447600
  H      0.882420   -2.287740   -0.115840

 Total Charge           Charge          ....    0
 Multiplicity           Mult            ....    1
 Number of Electrons    NEL             ....   56
 Basis Dimension        Dim             ....  138

ORBITAL ENERGIES
----------------

  NO   OCC          E(Eh)            E(eV)
   0   2.0000     -91.929334     -2501.5244
   1   2.0000     -11.257743      -306.3388
   2   2.0000     -11.257733      -306.3385
   3   2.0000     -11.235793      -305.7415
   4   2.0000     -11.235747      -305.7402
   5   2.0000     -11.232954      -305.6642
   6   2.0000      -8.932260      -243.0592
   7   2.0000      -6.614137      -179.9798
   8   2.0000      -6.612688      -179.9404
   9   2.0000      -6.610502      -179.8809
  10   2.0000      -1.113852       -30.3094
  11   2.0000      -1.016738       -27.6668
  12   2.0000      -0.997500       -27.1434
  13   2.0000      -0.851137       -23.1606
  14   2.0000      -0.836079       -22.7509
  15   2.0000      -0.737747       -20.0751
  16   2.0000      -0.654882       -17.8202
  17   2.0000      -0.641751       -17.4629
  18   2.0000      -0.579036       -15.7564
  19   2.0000      -0.571026       -15.5384
  20   2.0000      -0.546886       -14.8815
  21   2.0000      -0.518937       -14.1210
  22   2.0000      -0.510750       -13.8982
  23   2.0000      -0.492515       -13.4020
  24   2.0000      -0.467172       -12.7124
  25   2.0000      -0.438379       -11.9289
  26   2.0000      -0.403645       -10.9837
  27   2.0000      -0.326978        -8.8975
  28   0.0000       0.165952         4.5158
  29   0.0000       0.194221         5.2850
  30   0.0000       0.203103         5.5267
  31   0.0000       0.218793         5.9537
  32   0.0000       0.220355         5.9962

MULLIKEN ATOMIC CHARGES
-----------------------
   0 C :   -0.128445
   1 S :   -0.076219
   2 C :   -0.128446
   3 C :   -0.053843
   4 C :   -0.034960
   5 C :   -0.053847
   6 H :    0.067459
   7 H :    0.061490
   8 H :    0.034875
   9 H :    0.043088
  10 H :    0.030966
  11 H :    0.030965
  12 H :    0.034875
  13 H :    0.043088
  14 H :    0.061493
  15 H :    0.067461
Sum of atomic charges:   -0.0000000

LOEWDIN ATOMIC CHARGES
----------------------
   0 C :   -0.124742
   1 S :    0.166975
   2 C :   -0.124749
   3 C :   -0.047223
   4 C :   -0.033324
   5 C :   -0.047221
   6 H :    0.023680
   7 H :    0.013746
   8 H :    0.024795
   9 H :    0.021925
  10 H :    0.020997
  11 H :    0.020996
  12 H :    0.024794
  13 H :    0.021925
  14 H :    0.013748
  15 H :    0.023679

  Mayer bond orders larger than 0.1
B(  0-C ,  1-S ) :   1.0052 B(  0-C ,  5-C ) :   1.0296 B(  0-C , 14-H ) :   0.9649
B(  0-C , 15-H ) :   0.9740 B(  1-S ,  2-C ) :   1.0052 B(  2-C ,  3-C ) :   1.0296
B(  2-C ,  6-H ) :   0.9740 B(  2-C ,  7-H ) :   0.9649 B(  3-C ,  4-C ) :   1.0446
B(  3-C ,  8-H ) :   0.9702 B(  3-C ,  9-H ) :   0.9648 B(  4-C ,  5-C ) :   1.0446
B(  4-C , 10-H ) :   0.9704 B(  4-C , 11-H ) :   0.9704 B(  5-C , 12-H ) :   0.9702
B(  5-C , 13-H ) :   0.9648

E(0)                                       ...   -592.703026537
E(0)                                       ...   -592.703026537
E(CORR)(strong-pairs)                      ...     -0.917621098
E(CORR)(weak-pairs)                        ...     -0.000321250
E(CORR)(corrected)                         ...     -0.917942348
E(TOT)                                     ...   -593.620968885
E(CCSD(T))                                 ...   -593.649848915
FINAL SINGLE POINT ENERGY      -593.649848915084

DIPOLE MOMENT
-------------
                                X             Y             Z
Electronic contribution:      6.67755      -0.00012      -0.00006
Nuclear contribution   :     -7.49753       0.00013       0.00008
                        -----------------------------------------
Total Dipole Moment    :     -0.81999       0.00000       0.00002
                        -----------------------------------------
Magnitude (a.u.)       :      0.81999
Magnitude (Debye)      :      2.08424

Rotational constants in cm-1:     0.134861     0.095491     0.063525
Rotational constants in MHz :  4043.045814  2862.734924  1904.420616

                             ****ORCA TERMINATED NORMALLY****
TOTAL RUN TIME: 0 days 0 hours 1 minutes 49 seconds 443 msec
