                         Program Version 4.1.x  -  STABLE  -
|  1> ! RHF DLPNO-CCSD(T) cc-pVDZ RIJK cc-pVTZ/JK cc-pVDZ/C
|  2> ! KDIIS SOSCF TightSCF TightPNO
|  3>
|  4> %pal nprocs 4 end
|  5>
|  6> %maxcore 8000
|  7>
|  8> %scf maxiter 300
|  9>      shift shift 0.2 erroff 0.1 end
| 10> end
| 11>
| 12> * xyzfile 0 1 thiacyclohexane_ch.xyz
| 13>
| 14>
| 15>                          ****END OF INPUT****

CARTESIAN COORDINATES (ANGSTROEM)
---------------------------------
  C      0.992170    1.285260   -0.255290
  C      1.723880   -0.000010    0.166680
  C      0.992150   -1.285260   -0.255290
  C     -0.421700   -1.385850    0.326200
  S     -1.509810   -0.000000   -0.194910
  C     -0.421720    1.385860    0.326200
  H      0.933550   -1.333680   -1.350050
  H      1.569790   -2.159450    0.075080
  H     -0.386990   -1.417230    1.422460
  H     -0.924170   -2.296440   -0.013440
  H      2.734150   -0.000010   -0.260160
  H      1.849830   -0.000000    1.259630
  H     -0.387040    1.417270    1.422450
  H      1.569820    2.159430    0.075140
  H      0.933590    1.333700   -1.350040
  H     -0.924180    2.296440   -0.013500

 Total Charge           Charge          ....    0
 Multiplicity           Mult            ....    1
 Number of Electrons    NEL             ....   56
 Basis Dimension        Dim             ....  138

ORBITAL ENERGIES
----------------

  NO   OCC          E(Eh)            E(eV)
   0   2.0000     -91.931221     -2501.5757
   1   2.0000     -11.257645      -306.3361
   2   2.0000     -11.257632      -306.3357
   3   2.0000     -11.233502      -305.6791
   4   2.0000     -11.233425      -305.6770
   5   2.0000     -11.231572      -305.6266
   6   2.0000      -8.934334      -243.1156
   7   2.0000      -6.616194      -180.0358
   8   2.0000      -6.614769      -179.9970
   9   2.0000      -6.612595      -179.9379
  10   2.0000      -1.113999       -30.3135
  11   2.0000      -1.018323       -27.7100
  12   2.0000      -1.002412       -27.2770
  13   2.0000      -0.841480       -22.8978
  14   2.0000      -0.836444       -22.7608
  15   2.0000      -0.753207       -20.4958
  16   2.0000      -0.643263       -17.5041
  17   2.0000      -0.612737       -16.6734
  18   2.0000      -0.609640       -16.5892
  19   2.0000      -0.576269       -15.6811
  20   2.0000      -0.545476       -14.8431
  21   2.0000      -0.523238       -14.2380
  22   2.0000      -0.497410       -13.5352
  23   2.0000      -0.493963       -13.4414
  24   2.0000      -0.471672       -12.8348
  25   2.0000      -0.433838       -11.8053
  26   2.0000      -0.410000       -11.1567
  27   2.0000      -0.329392        -8.9632
  28   0.0000       0.175320         4.7707
  29   0.0000       0.189162         5.1474
  30   0.0000       0.201707         5.4887
  31   0.0000       0.220900         6.0110
  32   0.0000       0.224805         6.1173

MULLIKEN ATOMIC CHARGES
-----------------------
   0 C :   -0.027036
   1 C :   -0.060475
   2 C :   -0.027029
   3 C :   -0.124884
   4 S :   -0.077474
   5 C :   -0.124888
   6 H :    0.038643
   7 H :    0.030440
   8 H :    0.059086
   9 H :    0.065392
  10 H :    0.030848
  11 H :    0.023804
  12 H :    0.059088
  13 H :    0.030443
  14 H :    0.038646
  15 H :    0.065395
Sum of atomic charges:   -0.0000000

LOEWDIN ATOMIC CHARGES
----------------------
   0 C :   -0.045826
   1 C :   -0.035710
   2 C :   -0.045832
   3 C :   -0.127984
   4 S :    0.178166
   5 C :   -0.127984
   6 H :    0.021174
   7 H :    0.022971
   8 H :    0.014431
   9 H :    0.024252
  10 H :    0.023032
  11 H :    0.016485
  12 H :    0.014428
  13 H :    0.022972
  14 H :    0.021172
  15 H :    0.024253

  Mayer bond orders larger than 0.1
B(  0-C ,  1-C ) :   1.0446 B(  0-C ,  5-C ) :   1.0249 B(  0-C , 13-H ) :   0.9674
B(  0-C , 14-H ) :   0.9640 B(  1-C ,  2-C ) :   1.0446 B(  1-C , 10-H ) :   0.9736
B(  1-C , 11-H ) :   0.9651 B(  2-C ,  3-C ) :   1.0249 B(  2-C ,  6-H ) :   0.9640
B(  2-C ,  7-H ) :   0.9674 B(  3-C ,  4-S ) :   1.0076 B(  3-C ,  8-H ) :   0.9639
B(  3-C ,  9-H ) :   0.9744 B(  4-S ,  5-C ) :   1.0075 B(  5-C , 12-H ) :   0.9639
B(  5-C , 15-H ) :   0.9744

E(0)                                       ...   -592.711709214
E(0)                                       ...   -592.711709214
E(CORR)(strong-pairs)                      ...     -0.917104352
E(CORR)(weak-pairs)                        ...     -0.000322136
E(CORR)(corrected)                         ...     -0.917426488
E(TOT)                                     ...   -593.629135702
E(CCSD(T))                                 ...   -593.657987958
FINAL SINGLE POINT ENERGY      -593.657987957715

DIPOLE MOMENT
-------------
                                X             Y             Z
Electronic contribution:     -6.49983      -0.00003      -1.06553
Nuclear contribution   :      7.21928       0.00003       1.31068
                        -----------------------------------------
Total Dipole Moment    :      0.71945      -0.00000       0.24515
                        -----------------------------------------
Magnitude (a.u.)       :      0.76007
Magnitude (Debye)      :      1.93195

Rotational constants in cm-1:     0.131129     0.098558     0.062561
Rotational constants in MHz :  3931.162591  2954.696905  1875.542052

                             ****ORCA TERMINATED NORMALLY****
TOTAL RUN TIME: 0 days 0 hours 1 minutes 56 seconds 81 msec
