                         Program Version 4.1.x  -  STABLE  -
|  1> ! RHF DLPNO-CCSD(T) cc-pVDZ RIJK cc-pVTZ/JK cc-pVDZ/C
|  2> ! KDIIS SOSCF TightSCF TightPNO
|  3>
|  4> %pal nprocs 4 end
|  5>
|  6> %maxcore 8000
|  7>
|  8> %scf maxiter 300
|  9>      shift shift 0.2 erroff 0.1 end
| 10> end
| 11>
| 12> * xyzfile 0 1 THP_F_eq.xyz
| 13>
| 14>
| 15>                          ****END OF INPUT****

CARTESIAN COORDINATES (ANGSTROEM)
---------------------------------
  O      0.388360   -1.156430   -0.210820
  C     -0.983130   -1.283490    0.187270
  C     -1.814110   -0.090420   -0.287530
  C     -1.185710    1.222270    0.205250
  C      0.310160    1.268180   -0.157300
  C      0.993760   -0.005450    0.315470
  F      2.306060   -0.033470   -0.128910
  H     -1.852420   -0.098330   -1.383870
  H     -2.843220   -0.193230    0.078050
  H     -1.301250    1.295370    1.296100
  H     -1.703280    2.088120   -0.221380
  H      0.803550    2.136360    0.293090
  H      0.442440    1.329550   -1.243880
  H     -1.326020   -2.223090   -0.251740
  H     -1.038820   -1.377840    1.285000
  H      1.031740   -0.070760    1.416280

 Total Charge           Charge          ....    0
 Multiplicity           Mult            ....    1
 Number of Electrons    NEL             ....   56
 Basis Dimension        Dim             ....  143

ORBITAL ENERGIES
----------------

  NO   OCC          E(Eh)            E(eV)
   0   2.0000     -26.274800      -714.9737
   1   2.0000     -20.566468      -559.6420
   2   2.0000     -11.363775      -309.2241
   3   2.0000     -11.291964      -307.2700
   4   2.0000     -11.244341      -305.9741
   5   2.0000     -11.239651      -305.8464
   6   2.0000     -11.237399      -305.7852
   7   2.0000      -1.590982       -43.2928
   8   2.0000      -1.387648       -37.7598
   9   2.0000      -1.091303       -29.6959
  10   2.0000      -1.033850       -28.1325
  11   2.0000      -0.894730       -24.3468
  12   2.0000      -0.873985       -23.7823
  13   2.0000      -0.795413       -21.6443
  14   2.0000      -0.709808       -19.3149
  15   2.0000      -0.699869       -19.0444
  16   2.0000      -0.679004       -18.4766
  17   2.0000      -0.642683       -17.4883
  18   2.0000      -0.618769       -16.8376
  19   2.0000      -0.604651       -16.4534
  20   2.0000      -0.580823       -15.8050
  21   2.0000      -0.557926       -15.1819
  22   2.0000      -0.544511       -14.8169
  23   2.0000      -0.507149       -13.8002
  24   2.0000      -0.496926       -13.5220
  25   2.0000      -0.488310       -13.2876
  26   2.0000      -0.465740       -12.6734
  27   2.0000      -0.417735       -11.3671
  28   0.0000       0.172132         4.6839
  29   0.0000       0.191131         5.2010
  30   0.0000       0.208973         5.6865
  31   0.0000       0.231016         6.2863
  32   0.0000       0.246803         6.7158

MULLIKEN ATOMIC CHARGES
-----------------------
   0 O :   -0.481227
   1 C :    0.201425
   2 C :   -0.063481
   3 C :   -0.092356
   4 C :   -0.063994
   5 C :    0.524078
   6 F :   -0.342283
   7 H :    0.043104
   8 H :    0.032703
   9 H :    0.030837
  10 H :    0.040280
  11 H :    0.041266
  12 H :    0.049978
  13 H :    0.048381
  14 H :    0.021708
  15 H :    0.009581
Sum of atomic charges:   -0.0000000

LOEWDIN ATOMIC CHARGES
----------------------
   0 O :   -0.069565
   1 C :    0.031412
   2 C :   -0.042829
   3 C :   -0.033824
   4 C :   -0.044302
   5 C :    0.057621
   6 F :   -0.085325
   7 H :    0.024405
   8 H :    0.025667
   9 H :    0.018569
  10 H :    0.025648
  11 H :    0.028249
  12 H :    0.029123
  13 H :    0.026609
  14 H :    0.007986
  15 H :    0.000555

  Mayer bond orders larger than 0.1
B(  0-O ,  1-C ) :   0.9442 B(  0-O ,  5-C ) :   0.9971 B(  1-C ,  2-C ) :   1.0416
B(  1-C , 13-H ) :   0.9820 B(  1-C , 14-H ) :   0.9660 B(  2-C ,  3-C ) :   1.0383
B(  2-C ,  7-H ) :   0.9625 B(  2-C ,  8-H ) :   0.9688 B(  3-C ,  4-C ) :   1.0332
B(  3-C ,  9-H ) :   0.9662 B(  3-C , 10-H ) :   0.9745 B(  4-C ,  5-C ) :   1.0380
B(  4-C , 11-H ) :   0.9676 B(  4-C , 12-H ) :   0.9558 B(  5-C ,  6-F ) :   0.9372
B(  5-C , 15-H ) :   0.9659

E(0)                                       ...   -368.902129497
E(0)                                       ...   -368.902129497
E(CORR)(strong-pairs)                      ...     -1.128680831
E(CORR)(weak-pairs)                        ...     -0.000501222
E(CORR)(corrected)                         ...     -1.129182053
E(TOT)                                     ...   -370.031311550
E(CCSD(T))                                 ...   -370.062173771
FINAL SINGLE POINT ENERGY      -370.062173771198

DIPOLE MOMENT
-------------
                                X             Y             Z
Electronic contribution:      8.91664      -2.45575      -0.92718
Nuclear contribution   :    -10.15984       2.93017       1.40566
                        -----------------------------------------
Total Dipole Moment    :     -1.24320       0.47443       0.47849
                        -----------------------------------------
Magnitude (a.u.)       :      1.41406
Magnitude (Debye)      :      3.59426

Rotational constants in cm-1:     0.151388     0.077306     0.055735
Rotational constants in MHz :  4538.494583  2317.581125  1670.879216

                             ****ORCA TERMINATED NORMALLY****
TOTAL RUN TIME: 0 days 0 hours 2 minutes 10 seconds 400 msec
