                         Program Version 4.1.x  -  STABLE  -
|  1> ! RHF DLPNO-CCSD(T) cc-pVDZ RIJK cc-pVTZ/JK cc-pVDZ/C
|  2> ! KDIIS SOSCF TightSCF TightPNO
|  3>
|  4> %pal nprocs 4 end
|  5>
|  6> %maxcore 8000
|  7>
|  8> %scf maxiter 300
|  9>      shift shift 0.2 erroff 0.1 end
| 10> end
| 11>
| 12> * xyzfile 0 1 THP_F_ax.xyz
| 13>
| 14>
| 15>                          ****END OF INPUT****

CARTESIAN COORDINATES (ANGSTROEM)
---------------------------------
  O      0.370880   -1.164310   -0.621480
  C     -0.805520   -1.283070    0.208630
  C     -1.731520   -0.079520    0.054560
  C     -0.961720    1.218750    0.339580
  C      0.299060    1.277290   -0.535440
  C      1.111060   -0.009700   -0.431960
  F      1.713390   -0.042080    0.856420
  H     -2.132930   -0.060520   -0.967240
  H     -2.583000   -0.190600    0.736950
  H     -0.674380    1.252310    1.397640
  H     -1.591180    2.095340    0.151020
  H      0.940750    2.121920   -0.264730
  H      0.019930    1.399870   -1.589920
  H     -1.281670   -2.210150   -0.117970
  H     -0.489910   -1.402900    1.252840
  H      1.936640   -0.054430   -1.146700

 Total Charge           Charge          ....    0
 Multiplicity           Mult            ....    1
 Number of Electrons    NEL             ....   56
 Basis Dimension        Dim             ....  143

ORBITAL ENERGIES
----------------

  NO   OCC          E(Eh)            E(eV)
   0   2.0000     -26.264801      -714.7016
   1   2.0000     -20.569845      -559.7339
   2   2.0000     -11.362003      -309.1758
   3   2.0000     -11.285548      -307.0954
   4   2.0000     -11.238968      -305.8279
   5   2.0000     -11.237837      -305.7971
   6   2.0000     -11.236493      -305.7605
   7   2.0000      -1.573778       -42.8247
   8   2.0000      -1.388911       -37.7942
   9   2.0000      -1.087954       -29.6047
  10   2.0000      -1.036346       -28.2004
  11   2.0000      -0.889490       -24.2042
  12   2.0000      -0.877364       -23.8743
  13   2.0000      -0.774831       -21.0842
  14   2.0000      -0.720420       -19.6036
  15   2.0000      -0.686432       -18.6788
  16   2.0000      -0.668581       -18.1930
  17   2.0000      -0.643389       -17.5075
  18   2.0000      -0.613513       -16.6945
  19   2.0000      -0.594551       -16.1785
  20   2.0000      -0.572637       -15.5823
  21   2.0000      -0.554002       -15.0752
  22   2.0000      -0.543543       -14.7906
  23   2.0000      -0.532034       -14.4774
  24   2.0000      -0.487134       -13.2556
  25   2.0000      -0.471723       -12.8362
  26   2.0000      -0.462445       -12.5838
  27   2.0000      -0.425899       -11.5893
  28   0.0000       0.175441         4.7740
  29   0.0000       0.203464         5.5365
  30   0.0000       0.217130         5.9084
  31   0.0000       0.225487         6.1358
  32   0.0000       0.249583         6.7915

MULLIKEN ATOMIC CHARGES
-----------------------
   0 O :   -0.489779
   1 C :    0.214357
   2 C :   -0.075424
   3 C :   -0.073972
   4 C :   -0.056273
   5 C :    0.504891
   6 F :   -0.386560
   7 H :    0.036185
   8 H :    0.033725
   9 H :    0.046702
  10 H :    0.034828
  11 H :    0.047456
  12 H :    0.038386
  13 H :    0.042708
  14 H :    0.043118
  15 H :    0.039652
Sum of atomic charges:    0.0000000

LOEWDIN ATOMIC CHARGES
----------------------
   0 O :   -0.058947
   1 C :    0.039718
   2 C :   -0.043183
   3 C :   -0.031776
   4 C :   -0.044662
   5 C :    0.065558
   6 F :   -0.141431
   7 H :    0.021370
   8 H :    0.026343
   9 H :    0.024674
  10 H :    0.023296
  11 H :    0.030809
  12 H :    0.027367
  13 H :    0.024582
  14 H :    0.016146
  15 H :    0.020136

  Mayer bond orders larger than 0.1
B(  0-O ,  1-C ) :   0.9150 B(  0-O ,  5-C ) :   1.0525 B(  1-C ,  2-C ) :   1.0461
B(  1-C , 13-H ) :   0.9830 B(  1-C , 14-H ) :   0.9688 B(  2-C ,  3-C ) :   1.0405
B(  2-C ,  7-H ) :   0.9626 B(  2-C ,  8-H ) :   0.9693 B(  3-C ,  4-C ) :   1.0372
B(  3-C ,  9-H ) :   0.9653 B(  3-C , 10-H ) :   0.9763 B(  4-C ,  5-C ) :   1.0347
B(  4-C , 11-H ) :   0.9671 B(  4-C , 12-H ) :   0.9581 B(  5-C ,  6-F ) :   0.8653
B(  5-C , 15-H ) :   0.9809

E(0)                                       ...   -368.906473275
E(0)                                       ...   -368.906473275
E(CORR)(strong-pairs)                      ...     -1.128663332
E(CORR)(weak-pairs)                        ...     -0.000452178
E(CORR)(corrected)                         ...     -1.129115510
E(TOT)                                     ...   -370.035588784
E(CCSD(T))                                 ...   -370.066520100
FINAL SINGLE POINT ENERGY      -370.066520100146

DIPOLE MOMENT
-------------
                                X             Y             Z
Electronic contribution:      6.84765      -2.53021       1.12646
Nuclear contribution   :     -7.61794       3.00396      -1.41784
                        -----------------------------------------
Total Dipole Moment    :     -0.77029       0.47375      -0.29137
                        -----------------------------------------
Magnitude (a.u.)       :      0.95010
Magnitude (Debye)      :      2.41496

Rotational constants in cm-1:     0.125019     0.090704     0.068010
Rotational constants in MHz :  3747.966120  2719.244943  2038.874083

                             ****ORCA TERMINATED NORMALLY****
TOTAL RUN TIME: 0 days 0 hours 2 minutes 8 seconds 71 msec
