                         Program Version 4.1.x  -  STABLE  -
|  1> ! RHF DLPNO-CCSD(T) cc-pVDZ RIJK cc-pVTZ/JK cc-pVDZ/C
|  2> ! KDIIS SOSCF TightSCF TightPNO
|  3>
|  4> %pal nprocs 4 end
|  5>
|  6> %maxcore 8000
|  7>
|  8> %scf maxiter 300
|  9>      shift shift 0.2 erroff 0.1 end
| 10> end
| 11>
| 12> * xyzfile 0 1 TMH_a.xyz
| 13>
| 14>
| 15>                          ****END OF INPUT****

CARTESIAN COORDINATES (ANGSTROEM)
---------------------------------
  C      3.278470    0.357670    0.060010
  C      1.820480    0.771450   -0.197340
  C      0.730390   -0.331680   -0.017770
  C      0.985460   -1.089380    1.307290
  C     -0.730400    0.331680   -0.017770
  C     -0.877160    1.349080   -1.175360
  C      0.877180   -1.349060   -1.175370
  C     -1.820500   -0.771450   -0.197370
  C     -3.278480   -0.357680    0.060000
  C     -0.985460    1.089350    1.307320
  H      3.946260    1.194990   -0.171340
  H      3.452620    0.083040    1.105040
  H      3.592510   -0.486190   -0.563610
  H      1.594820    1.615480    0.465150
  H      1.754760    1.162080   -1.219380
  H     -1.754780   -1.162050   -1.219410
  H     -1.594830   -1.615500    0.465100
  H     -3.946280   -1.194980   -0.171390
  H     -3.452630   -0.083080    1.105040
  H     -3.592530    0.486220   -0.563580
  H      0.253490   -2.234740   -1.024150
  H      0.615100   -0.913290   -2.145360
  H      1.911970   -1.698880   -1.245270
  H      0.170070   -1.778720    1.547280
  H      1.897570   -1.689890    1.234890
  H      1.108480   -0.408890    2.155840
  H     -1.897570    1.689870    1.234930
  H     -1.108460    0.408840    2.155850
  H     -0.170060    1.778680    1.547320
  H     -1.911930    1.698940   -1.245280
  H     -0.253450    2.234750   -1.024120
  H     -0.615070    0.913330   -2.145350

 Total Charge           Charge          ....    0
 Multiplicity           Mult            ....    1
 Number of Electrons    NEL             ....   82
 Basis Dimension        Dim             ....  250

ORBITAL ENERGIES
----------------

  NO   OCC          E(Eh)            E(eV)
   0   2.0000     -11.236062      -305.7488
   1   2.0000     -11.235603      -305.7363
   2   2.0000     -11.218367      -305.2673
   3   2.0000     -11.218366      -305.2673
   4   2.0000     -11.216487      -305.2161
   5   2.0000     -11.216486      -305.2161
   6   2.0000     -11.212715      -305.1135
   7   2.0000     -11.212707      -305.1133
   8   2.0000     -11.212312      -305.1025
   9   2.0000     -11.212308      -305.1024
  10   2.0000      -1.121542       -30.5187
  11   2.0000      -1.051627       -28.6162
  12   2.0000      -0.985304       -26.8115
  13   2.0000      -0.980610       -26.6838
  14   2.0000      -0.937505       -25.5108
  15   2.0000      -0.909050       -24.7365
  16   2.0000      -0.859086       -23.3769
  17   2.0000      -0.858554       -23.3625
  18   2.0000      -0.767324       -20.8799
  19   2.0000      -0.688629       -18.7386
  20   2.0000      -0.642081       -17.4719
  21   2.0000      -0.620774       -16.8921
  22   2.0000      -0.612182       -16.6583
  23   2.0000      -0.601502       -16.3677
  24   2.0000      -0.591802       -16.1037
  25   2.0000      -0.567639       -15.4462
  26   2.0000      -0.546135       -14.8611
  27   2.0000      -0.532464       -14.4891
  28   2.0000      -0.531464       -14.4619
  29   2.0000      -0.526733       -14.3331
  30   2.0000      -0.522122       -14.2077
  31   2.0000      -0.509176       -13.8554
  32   2.0000      -0.498557       -13.5664
  33   2.0000      -0.495736       -13.4897
  34   2.0000      -0.492484       -13.4012
  35   2.0000      -0.480792       -13.0830
  36   2.0000      -0.462315       -12.5802
  37   2.0000      -0.460051       -12.5186
  38   2.0000      -0.426494       -11.6055
  39   2.0000      -0.415897       -11.3171
  40   2.0000      -0.410660       -11.1746
  41   0.0000       0.175449         4.7742
  42   0.0000       0.195439         5.3182
  43   0.0000       0.215751         5.8709
  44   0.0000       0.219393         5.9700
  45   0.0000       0.227755         6.1975

MULLIKEN ATOMIC CHARGES
-----------------------
   0 C :   -0.012958
   1 C :   -0.014392
   2 C :   -0.411500
   3 C :    0.067662
   4 C :   -0.411502
   5 C :    0.072584
   6 C :    0.072583
   7 C :   -0.014386
   8 C :   -0.012962
   9 C :    0.067658
  10 H :    0.028569
  11 H :    0.031602
  12 H :    0.027983
  13 H :    0.025091
  14 H :    0.025163
  15 H :    0.025161
  16 H :    0.025092
  17 H :    0.028570
  18 H :    0.031602
  19 H :    0.027983
  20 H :    0.028009
  21 H :    0.024725
  22 H :    0.025394
  23 H :    0.024956
  24 H :    0.028768
  25 H :    0.028344
  26 H :    0.028770
  27 H :    0.028346
  28 H :    0.024956
  29 H :    0.025393
  30 H :    0.028009
  31 H :    0.024725
Sum of atomic charges:   -0.0000000

LOEWDIN ATOMIC CHARGES
----------------------
   0 C :   -0.050944
   1 C :   -0.028088
   2 C :   -0.044966
   3 C :   -0.037676
   4 C :   -0.044962
   5 C :   -0.037762
   6 C :   -0.037761
   7 C :   -0.028089
   8 C :   -0.050946
   9 C :   -0.037676
  10 H :    0.022912
  11 H :    0.018854
  12 H :    0.016831
  13 H :    0.015703
  14 H :    0.017986
  15 H :    0.017985
  16 H :    0.015704
  17 H :    0.022912
  18 H :    0.018854
  19 H :    0.016833
  20 H :    0.018779
  21 H :    0.016112
  22 H :    0.018160
  23 H :    0.016519
  24 H :    0.019614
  25 H :    0.017963
  26 H :    0.019615
  27 H :    0.017963
  28 H :    0.016520
  29 H :    0.018159
  30 H :    0.018780
  31 H :    0.016111

  Mayer bond orders larger than 0.1
B(  0-C ,  1-C ) :   1.0764 B(  0-C , 10-H ) :   0.9805 B(  0-C , 11-H ) :   0.9773
B(  0-C , 12-H ) :   0.9784 B(  1-C ,  2-C ) :   1.0243 B(  1-C , 13-H ) :   0.9585
B(  1-C , 14-H ) :   0.9606 B(  2-C ,  3-C ) :   1.0308 B(  2-C ,  4-C ) :   1.0039
B(  2-C ,  6-C ) :   1.0324 B(  3-C , 23-H ) :   0.9760 B(  3-C , 24-H ) :   0.9756
B(  3-C , 25-H ) :   0.9753 B(  4-C ,  5-C ) :   1.0324 B(  4-C ,  7-C ) :   1.0242
B(  4-C ,  9-C ) :   1.0308 B(  5-C , 29-H ) :   0.9754 B(  5-C , 30-H ) :   0.9757
B(  5-C , 31-H ) :   0.9761 B(  6-C , 20-H ) :   0.9757 B(  6-C , 21-H ) :   0.9761
B(  6-C , 22-H ) :   0.9754 B(  7-C ,  8-C ) :   1.0764 B(  7-C , 15-H ) :   0.9606
B(  7-C , 16-H ) :   0.9585 B(  8-C , 17-H ) :   0.9805 B(  8-C , 18-H ) :   0.9773
B(  8-C , 19-H ) :   0.9784 B(  9-C , 26-H ) :   0.9756 B(  9-C , 27-H ) :   0.9753
B(  9-C , 28-H ) :   0.9760

E(0)                                       ...   -391.505031690
E(0)                                       ...   -391.505031690
E(CORR)(strong-pairs)                      ...     -1.608086351
E(CORR)(weak-pairs)                        ...     -0.001162290
E(CORR)(corrected)                         ...     -1.609248641
E(TOT)                                     ...   -393.114280331
E(CCSD(T))                                 ...   -393.163975892
FINAL SINGLE POINT ENERGY      -393.163975892224

DIPOLE MOMENT
-------------
                                X             Y             Z
Electronic contribution:     -0.00008      -0.00004      -0.29834
Nuclear contribution   :      0.00008       0.00004       0.30110
                        -----------------------------------------
Total Dipole Moment    :      0.00000      -0.00000       0.00275
                        -----------------------------------------
Magnitude (a.u.)       :      0.00275
Magnitude (Debye)      :      0.00700

Rotational constants in cm-1:     0.068171     0.027325     0.026468
Rotational constants in MHz :  2043.705362   819.179821   793.487546

                             ****ORCA TERMINATED NORMALLY****
TOTAL RUN TIME: 0 days 0 hours 11 minutes 1 seconds 4 msec
