                         Program Version 4.1.x  -  STABLE  -
|  1> ! RHF DLPNO-CCSD(T) cc-pVDZ RIJK cc-pVTZ/JK cc-pVDZ/C
|  2> ! KDIIS SOSCF TightSCF TightPNO
|  3>
|  4> %pal nprocs 4 end
|  5>
|  6> %maxcore 8000
|  7>
|  8> %scf maxiter 300
|  9>      shift shift 0.2 erroff 0.1 end
| 10> end
| 11>
| 12> * xyzfile 0 1 TMH_g.xyz
| 13>
| 14>
| 15>                          ****END OF INPUT****

CARTESIAN COORDINATES (ANGSTROEM)
---------------------------------
  C      2.980620   -1.125790    0.222310
  C      1.444440   -1.068580    0.254000
  C      0.780840    0.275310   -0.183230
  C      0.984500    0.452470   -1.707510
  C     -0.780840    0.275310    0.183240
  C     -1.504570    1.448830   -0.519620
  C      1.504570    1.448840    0.519610
  C     -1.444430   -1.068580   -0.253990
  C     -2.980610   -1.125790   -0.222320
  C     -0.984510    0.452470    1.707520
  H      3.317960   -2.138080    0.471270
  H      3.388870   -0.883990   -0.764880
  H      3.436410   -0.444730    0.947610
  H      1.064710   -1.872710   -0.386190
  H      1.124640   -1.315090    1.273810
  H     -1.124610   -1.315100   -1.273800
  H     -1.064720   -1.872710    0.386210
  H     -3.317950   -2.138080   -0.471290
  H     -3.388880   -0.883990    0.764860
  H     -3.436390   -0.444740   -0.947630
  H      0.988660    2.400400    0.358790
  H      1.593430    1.293670    1.599430
  H      2.517290    1.566150    0.121970
  H      0.678310    1.447000   -2.045290
  H      2.041630    0.340710   -1.968130
  H      0.426470   -0.286780   -2.291530
  H     -2.041640    0.340710    1.968120
  H     -0.426480   -0.286780    2.291540
  H     -0.678330    1.447000    2.045290
  H     -2.517300    1.566110   -0.121990
  H     -0.988690    2.400400   -0.358790
  H     -1.593410    1.293660   -1.599440

 Total Charge           Charge          ....    0
 Multiplicity           Mult            ....    1
 Number of Electrons    NEL             ....   82
 Basis Dimension        Dim             ....  250

ORBITAL ENERGIES
----------------

  NO   OCC          E(Eh)            E(eV)
   0   2.0000     -11.236057      -305.7487
   1   2.0000     -11.235597      -305.7361
   2   2.0000     -11.218414      -305.2686
   3   2.0000     -11.218407      -305.2684
   4   2.0000     -11.216409      -305.2140
   5   2.0000     -11.216408      -305.2140
   6   2.0000     -11.212573      -305.1096
   7   2.0000     -11.212569      -305.1095
   8   2.0000     -11.212358      -305.1038
   9   2.0000     -11.212357      -305.1037
  10   2.0000      -1.121545       -30.5188
  11   2.0000      -1.051171       -28.6038
  12   2.0000      -0.993780       -27.0421
  13   2.0000      -0.971302       -26.4305
  14   2.0000      -0.932896       -25.3854
  15   2.0000      -0.914852       -24.8944
  16   2.0000      -0.875807       -23.8319
  17   2.0000      -0.837833       -22.7986
  18   2.0000      -0.771880       -21.0039
  19   2.0000      -0.688267       -18.7287
  20   2.0000      -0.646043       -17.5797
  21   2.0000      -0.618827       -16.8391
  22   2.0000      -0.613944       -16.7063
  23   2.0000      -0.593886       -16.1605
  24   2.0000      -0.592484       -16.1223
  25   2.0000      -0.560603       -15.2548
  26   2.0000      -0.553829       -15.0704
  27   2.0000      -0.544548       -14.8179
  28   2.0000      -0.533515       -14.5177
  29   2.0000      -0.517733       -14.0882
  30   2.0000      -0.516844       -14.0640
  31   2.0000      -0.507832       -13.8188
  32   2.0000      -0.505551       -13.7567
  33   2.0000      -0.489561       -13.3216
  34   2.0000      -0.489187       -13.3115
  35   2.0000      -0.484999       -13.1975
  36   2.0000      -0.464299       -12.6342
  37   2.0000      -0.461519       -12.5586
  38   2.0000      -0.423381       -11.5208
  39   2.0000      -0.415993       -11.3197
  40   2.0000      -0.412055       -11.2126
  41   0.0000       0.174075         4.7368
  42   0.0000       0.199707         5.4343
  43   0.0000       0.214431         5.8350
  44   0.0000       0.221499         6.0273
  45   0.0000       0.225155         6.1268

MULLIKEN ATOMIC CHARGES
-----------------------
   0 C :   -0.009219
   1 C :   -0.019021
   2 C :   -0.412386
   3 C :    0.074621
   4 C :   -0.412388
   5 C :    0.067024
   6 C :    0.067025
   7 C :   -0.019025
   8 C :   -0.009218
   9 C :    0.074628
  10 H :    0.028434
  11 H :    0.027915
  12 H :    0.031476
  13 H :    0.026108
  14 H :    0.024763
  15 H :    0.024765
  16 H :    0.026108
  17 H :    0.028434
  18 H :    0.027915
  19 H :    0.031475
  20 H :    0.025393
  21 H :    0.028566
  22 H :    0.028934
  23 H :    0.027431
  24 H :    0.025764
  25 H :    0.024194
  26 H :    0.025763
  27 H :    0.024195
  28 H :    0.027430
  29 H :    0.028933
  30 H :    0.025393
  31 H :    0.028568
Sum of atomic charges:   -0.0000000

LOEWDIN ATOMIC CHARGES
----------------------
   0 C :   -0.050815
   1 C :   -0.028655
   2 C :   -0.045051
   3 C :   -0.037450
   4 C :   -0.045050
   5 C :   -0.037335
   6 C :   -0.037336
   7 C :   -0.028656
   8 C :   -0.050816
   9 C :   -0.037448
  10 H :    0.022809
  11 H :    0.016904
  12 H :    0.018787
  13 H :    0.018042
  14 H :    0.015832
  15 H :    0.015834
  16 H :    0.018042
  17 H :    0.022810
  18 H :    0.016904
  19 H :    0.018786
  20 H :    0.016738
  21 H :    0.017943
  22 H :    0.019586
  23 H :    0.018854
  24 H :    0.018121
  25 H :    0.015689
  26 H :    0.018120
  27 H :    0.015690
  28 H :    0.018854
  29 H :    0.019586
  30 H :    0.016737
  31 H :    0.017944

  Mayer bond orders larger than 0.1
B(  0-C ,  1-C ) :   1.0769 B(  0-C , 10-H ) :   0.9804 B(  0-C , 11-H ) :   0.9782
B(  0-C , 12-H ) :   0.9773 B(  1-C ,  2-C ) :   1.0215 B(  1-C , 13-H ) :   0.9605
B(  1-C , 14-H ) :   0.9589 B(  2-C ,  3-C ) :   1.0312 B(  2-C ,  4-C ) :   1.0035
B(  2-C ,  6-C ) :   1.0346 B(  3-C , 23-H ) :   0.9758 B(  3-C , 24-H ) :   0.9754
B(  3-C , 25-H ) :   0.9763 B(  4-C ,  5-C ) :   1.0346 B(  4-C ,  7-C ) :   1.0215
B(  4-C ,  9-C ) :   1.0312 B(  5-C , 29-H ) :   0.9757 B(  5-C , 30-H ) :   0.9759
B(  5-C , 31-H ) :   0.9750 B(  6-C , 20-H ) :   0.9759 B(  6-C , 21-H ) :   0.9750
B(  6-C , 22-H ) :   0.9757 B(  7-C ,  8-C ) :   1.0769 B(  7-C , 15-H ) :   0.9589
B(  7-C , 16-H ) :   0.9605 B(  8-C , 17-H ) :   0.9804 B(  8-C , 18-H ) :   0.9782
B(  8-C , 19-H ) :   0.9773 B(  9-C , 26-H ) :   0.9754 B(  9-C , 27-H ) :   0.9763
B(  9-C , 28-H ) :   0.9758

E(0)                                       ...   -391.505049896
E(0)                                       ...   -391.505049896
E(CORR)(strong-pairs)                      ...     -1.608096702
E(CORR)(weak-pairs)                        ...     -0.001166848
E(CORR)(corrected)                         ...     -1.609263550
E(TOT)                                     ...   -393.114313446
E(CCSD(T))                                 ...   -393.164014577
FINAL SINGLE POINT ENERGY      -393.164014576597

DIPOLE MOMENT
-------------
                                X             Y             Z
Electronic contribution:      0.00003      -0.25997       0.00007
Nuclear contribution   :     -0.00003       0.23058      -0.00006
                        -----------------------------------------
Total Dipole Moment    :     -0.00000      -0.02939       0.00000
                        -----------------------------------------
Magnitude (a.u.)       :      0.02939
Magnitude (Debye)      :      0.07470

Rotational constants in cm-1:     0.060057     0.029128     0.027158
Rotational constants in MHz :  1800.461435   873.234286   814.165646

                             ****ORCA TERMINATED NORMALLY****
TOTAL RUN TIME: 0 days 0 hours 11 minutes 15 seconds 465 msec
