                         Program Version 4.1.x  -  STABLE  -
|  1> ! RHF DLPNO-CCSD(T) cc-pVDZ RIJK cc-pVTZ/JK cc-pVDZ/C
|  2> ! KDIIS SOSCF TightSCF TightPNO
|  3>
|  4> %pal nprocs 4 end
|  5>
|  6> %maxcore 8000
|  7>
|  8> %scf maxiter 300
|  9>      shift shift 0.2 erroff 0.1 end
| 10> end
| 11>
| 12> * xyzfile 0 1 trans1_2dimethylcycloh_eq_eq.xyz
| 13>
| 14>
| 15>                          ****END OF INPUT****

CARTESIAN COORDINATES (ANGSTROEM)
---------------------------------
  C      1.949070   -0.710770   -0.289180
  C      1.949090    0.710770    0.289200
  C      0.673850    1.466680   -0.106830
  C     -0.616830    0.719960    0.288390
  C     -0.616840   -0.719950   -0.288390
  C      0.673840   -1.466690    0.106800
  C     -1.850780    1.535660   -0.126500
  C     -1.850790   -1.535650    0.126510
  H      0.670080    1.625440   -1.196400
  H      0.669890    2.465400    0.349260
  H     -0.624750    0.627990    1.387560
  H     -0.624770   -0.627980   -1.387570
  H      2.836110    1.262470   -0.046700
  H      2.012250    0.655210    1.385900
  H      0.670080   -1.625470    1.196380
  H      0.669870   -2.465410   -0.349280
  H      2.836080   -1.262490    0.046720
  H      2.012220   -0.655220   -1.385890
  H     -1.784050    2.559960    0.258220
  H     -1.929110    1.598100   -1.219700
  H     -2.782210    1.104140    0.251650
  H     -1.784060   -2.559960   -0.258190
  H     -1.929120   -1.598070    1.219710
  H     -2.782220   -1.104130   -0.251650

 Total Charge           Charge          ....    0
 Multiplicity           Mult            ....    1
 Number of Electrons    NEL             ....   64
 Basis Dimension        Dim             ....  192

ORBITAL ENERGIES
----------------

  NO   OCC          E(Eh)            E(eV)
   0   2.0000     -11.224216      -305.4264
   1   2.0000     -11.223661      -305.4113
   2   2.0000     -11.219038      -305.2855
   3   2.0000     -11.218502      -305.2710
   4   2.0000     -11.217652      -305.2478
   5   2.0000     -11.217602      -305.2465
   6   2.0000     -11.215755      -305.1962
   7   2.0000     -11.215751      -305.1961
   8   2.0000      -1.121072       -30.5059
   9   2.0000      -1.031903       -28.0795
  10   2.0000      -1.019399       -27.7393
  11   2.0000      -0.935752       -25.4631
  12   2.0000      -0.893306       -24.3081
  13   2.0000      -0.810796       -22.0629
  14   2.0000      -0.789966       -21.4961
  15   2.0000      -0.744917       -20.2702
  16   2.0000      -0.626356       -17.0440
  17   2.0000      -0.609229       -16.5780
  18   2.0000      -0.604505       -16.4494
  19   2.0000      -0.591230       -16.0882
  20   2.0000      -0.584619       -15.9083
  21   2.0000      -0.543701       -14.7948
  22   2.0000      -0.529929       -14.4201
  23   2.0000      -0.513975       -13.9860
  24   2.0000      -0.506810       -13.7910
  25   2.0000      -0.502377       -13.6704
  26   2.0000      -0.477874       -13.0036
  27   2.0000      -0.467608       -12.7243
  28   2.0000      -0.461880       -12.5684
  29   2.0000      -0.442065       -12.0292
  30   2.0000      -0.416226       -11.3261
  31   2.0000      -0.416017       -11.3204
  32   0.0000       0.184045         5.0081
  33   0.0000       0.191831         5.2200
  34   0.0000       0.196340         5.3427
  35   0.0000       0.206018         5.6060
  36   0.0000       0.244421         6.6510

MULLIKEN ATOMIC CHARGES
-----------------------
   0 C :   -0.025928
   1 C :   -0.025921
   2 C :    0.003064
   3 C :   -0.183587
   4 C :   -0.183595
   5 C :    0.003067
   6 C :    0.030129
   7 C :    0.030127
   8 H :    0.018621
   9 H :    0.021285
  10 H :    0.010605
  11 H :    0.010606
  12 H :    0.021654
  13 H :    0.021264
  14 H :    0.018618
  15 H :    0.021286
  16 H :    0.021651
  17 H :    0.021263
  18 H :    0.026754
  19 H :    0.024654
  20 H :    0.031487
  21 H :    0.026755
  22 H :    0.024654
  23 H :    0.031488
Sum of atomic charges:   -0.0000000

LOEWDIN ATOMIC CHARGES
----------------------
   0 C :   -0.032598
   1 C :   -0.032594
   2 C :   -0.026502
   3 C :   -0.037072
   4 C :   -0.037073
   5 C :   -0.026506
   6 C :   -0.043620
   7 C :   -0.043621
   8 H :    0.014909
   9 H :    0.018060
  10 H :    0.013270
  11 H :    0.013270
  12 H :    0.018918
  13 H :    0.015749
  14 H :    0.014909
  15 H :    0.018060
  16 H :    0.018917
  17 H :    0.015750
  18 H :    0.020850
  19 H :    0.018831
  20 H :    0.019205
  21 H :    0.020850
  22 H :    0.018831
  23 H :    0.019205

  Mayer bond orders larger than 0.1
B(  0-C ,  1-C ) :   1.0450 B(  0-C ,  5-C ) :   1.0549 B(  0-C , 16-H ) :   0.9713
B(  0-C , 17-H ) :   0.9623 B(  1-C ,  2-C ) :   1.0549 B(  1-C , 12-H ) :   0.9713
B(  1-C , 13-H ) :   0.9623 B(  2-C ,  3-C ) :   1.0270 B(  2-C ,  8-H ) :   0.9589
B(  2-C ,  9-H ) :   0.9682 B(  3-C ,  4-C ) :   0.9900 B(  3-C ,  6-C ) :   1.0627
B(  3-C , 10-H ) :   0.9469 B(  4-C ,  5-C ) :   1.0270 B(  4-C ,  7-C ) :   1.0627
B(  4-C , 11-H ) :   0.9469 B(  5-C , 14-H ) :   0.9589 B(  5-C , 15-H ) :   0.9682
B(  6-C , 18-H ) :   0.9795 B(  6-C , 19-H ) :   0.9745 B(  6-C , 20-H ) :   0.9791
B(  7-C , 21-H ) :   0.9795 B(  7-C , 22-H ) :   0.9745 B(  7-C , 23-H ) :   0.9791

E(0)                                       ...   -312.297814483
E(0)                                       ...   -312.297814483
E(CORR)(strong-pairs)                      ...     -1.250654112
E(CORR)(weak-pairs)                        ...     -0.000582173
E(CORR)(corrected)                         ...     -1.251236284
E(TOT)                                     ...   -313.549050768
E(CCSD(T))                                 ...   -313.587731040
FINAL SINGLE POINT ENERGY      -313.587731039652

DIPOLE MOMENT
-------------
                                X             Y             Z
Electronic contribution:      2.01308       0.00004      -0.00001
Nuclear contribution   :     -1.99624      -0.00003       0.00002
                        -----------------------------------------
Total Dipole Moment    :      0.01684       0.00000       0.00001
                        -----------------------------------------
Magnitude (a.u.)       :      0.01684
Magnitude (Debye)      :      0.04281

Rotational constants in cm-1:     0.086449     0.062698     0.039549
Rotational constants in MHz :  2591.688039  1879.628552  1185.649928

                             ****ORCA TERMINATED NORMALLY****
TOTAL RUN TIME: 0 days 0 hours 4 minutes 21 seconds 383 msec
