                         Program Version 4.1.x  -  STABLE  -
|  1> ! RHF DLPNO-CCSD(T) cc-pVDZ RIJK cc-pVTZ/JK cc-pVDZ/C
|  2> ! KDIIS SOSCF TightSCF TightPNO
|  3>
|  4> %pal nprocs 4 end
|  5>
|  6> %maxcore 8000
|  7>
|  8> %scf maxiter 300
|  9>      shift shift 0.2 erroff 0.1 end
| 10> end
| 11>
| 12> * xyzfile 0 1 trans1_2dichlorocycloh_eq_eq.xyz
| 13>
| 14>
| 15>                          ****END OF INPUT****

CARTESIAN COORDINATES (ANGSTROEM)
---------------------------------
  C      2.377860    0.681540    0.351610
  C      2.377860   -0.681530   -0.351600
  C      1.107910   -1.474520   -0.005360
  C     -0.163230   -0.683480   -0.343650
  C     -0.163220    0.683470    0.343650
  C      1.107900    1.474530    0.005350
  Cl    -1.620810   -1.672080    0.141310
  Cl    -1.620810    1.672080   -0.141310
  H      1.099350   -1.712470    1.065820
  H      1.080660   -2.428040   -0.541900
  H     -0.260040   -0.548360   -1.424230
  H     -0.260050    0.548370    1.424230
  H      3.259550   -1.266200   -0.065120
  H      2.438970   -0.534080   -1.438900
  H      1.099350    1.712460   -1.065830
  H      1.080640    2.428050    0.541880
  H      3.259540    1.266210    0.065110
  H      2.438990    0.534070    1.438900

 Total Charge           Charge          ....    0
 Multiplicity           Mult            ....    1
 Number of Electrons    NEL             ....   80
 Basis Dimension        Dim             ....  170

ORBITAL ENERGIES
----------------

  NO   OCC          E(Eh)            E(eV)
   0   2.0000    -104.813951     -2852.1326
   1   2.0000    -104.813947     -2852.1325
   2   2.0000     -11.315273      -307.9042
   3   2.0000     -11.314662      -307.8876
   4   2.0000     -11.253143      -306.2136
   5   2.0000     -11.253140      -306.2135
   6   2.0000     -11.248211      -306.0794
   7   2.0000     -11.247622      -306.0633
   8   2.0000     -10.540591      -286.8241
   9   2.0000     -10.540584      -286.8239
  10   2.0000      -8.008013      -217.9091
  11   2.0000      -8.008010      -217.9090
  12   2.0000      -8.004807      -217.8219
  13   2.0000      -8.004804      -217.8218
  14   2.0000      -8.004756      -217.8205
  15   2.0000      -8.004753      -217.8204
  16   2.0000      -1.185055       -32.2470
  17   2.0000      -1.106707       -30.1150
  18   2.0000      -1.094298       -29.7774
  19   2.0000      -1.011658       -27.5286
  20   2.0000      -0.980581       -26.6830
  21   2.0000      -0.856759       -23.3136
  22   2.0000      -0.835602       -22.7379
  23   2.0000      -0.787161       -21.4197
  24   2.0000      -0.663095       -18.0437
  25   2.0000      -0.639108       -17.3910
  26   2.0000      -0.633183       -17.2298
  27   2.0000      -0.616185       -16.7672
  28   2.0000      -0.578663       -15.7462
  29   2.0000      -0.552773       -15.0417
  30   2.0000      -0.547385       -14.8951
  31   2.0000      -0.526533       -14.3277
  32   2.0000      -0.519080       -14.1249
  33   2.0000      -0.484131       -13.1739
  34   2.0000      -0.471431       -12.8283
  35   2.0000      -0.470945       -12.8151
  36   2.0000      -0.439753       -11.9663
  37   2.0000      -0.436109       -11.8671
  38   2.0000      -0.425604       -11.5813
  39   2.0000      -0.418283       -11.3821
  40   0.0000       0.144239         3.9249
  41   0.0000       0.176185         4.7942
  42   0.0000       0.202197         5.5021
  43   0.0000       0.203200         5.5294
  44   0.0000       0.211702         5.7607

MULLIKEN ATOMIC CHARGES
-----------------------
   0 C :   -0.049461
   1 C :   -0.049464
   2 C :    0.022380
   3 C :   -0.090333
   4 C :   -0.090337
   5 C :    0.022387
   6 Cl:   -0.140714
   7 Cl:   -0.140727
   8 H :    0.045525
   9 H :    0.053114
  10 H :    0.086071
  11 H :    0.086073
  12 H :    0.039182
  13 H :    0.034239
  14 H :    0.045527
  15 H :    0.053115
  16 H :    0.039181
  17 H :    0.034241
Sum of atomic charges:   -0.0000000

LOEWDIN ATOMIC CHARGES
----------------------
   0 C :   -0.031499
   1 C :   -0.031502
   2 C :   -0.033657
   3 C :   -0.077152
   4 C :   -0.077143
   5 C :   -0.033654
   6 Cl:    0.010499
   7 Cl:    0.010484
   8 H :    0.025111
   9 H :    0.031135
  10 H :    0.027658
  11 H :    0.027658
  12 H :    0.027281
  13 H :    0.020626
  14 H :    0.025112
  15 H :    0.031134
  16 H :    0.027280
  17 H :    0.020626

  Mayer bond orders larger than 0.1
B(  0-C ,  1-C ) :   1.0390 B(  0-C ,  5-C ) :   1.0417 B(  0-C , 16-H ) :   0.9710
B(  0-C , 17-H ) :   0.9640 B(  1-C ,  2-C ) :   1.0417 B(  1-C , 12-H ) :   0.9710
B(  1-C , 13-H ) :   0.9640 B(  2-C ,  3-C ) :   0.9939 B(  2-C ,  8-H ) :   0.9602
B(  2-C ,  9-H ) :   0.9679 B(  3-C ,  4-C ) :   0.9509 B(  3-C ,  6-Cl) :   1.0224
B(  3-C , 10-H ) :   0.9553 B(  4-C ,  5-C ) :   0.9939 B(  4-C ,  7-Cl) :   1.0224
B(  4-C , 11-H ) :   0.9553 B(  5-C , 14-H ) :   0.9602 B(  5-C , 15-H ) :   0.9679

E(0)                                       ...  -1152.072021268
E(0)                                       ...  -1152.072021268
E(CORR)(strong-pairs)                      ...     -1.202814739
E(CORR)(weak-pairs)                        ...     -0.000519652
E(CORR)(corrected)                         ...     -1.203334391
E(TOT)                                     ...  -1153.275355659
E(CCSD(T))                                 ...  -1153.311985167
FINAL SINGLE POINT ENERGY     -1153.311985166633

DIPOLE MOMENT
-------------
                                X             Y             Z
Electronic contribution:    -17.88136      -0.00002       0.00004
Nuclear contribution   :     19.51021       0.00000      -0.00004
                        -----------------------------------------
Total Dipole Moment    :      1.62885      -0.00002       0.00000
                        -----------------------------------------
Magnitude (a.u.)       :      1.62885
Magnitude (Debye)      :      4.14022

Rotational constants in cm-1:     0.053783     0.041485     0.024678
Rotational constants in MHz :  1612.368439  1243.675030   739.826439

                             ****ORCA TERMINATED NORMALLY****
TOTAL RUN TIME: 0 days 0 hours 3 minutes 53 seconds 939 msec
