                         Program Version 4.1.x  -  STABLE  -
|  1> ! RHF DLPNO-CCSD(T) cc-pVDZ RIJK cc-pVTZ/JK cc-pVDZ/C
|  2> ! KDIIS SOSCF TightSCF TightPNO
|  3>
|  4> %pal nprocs 4 end
|  5>
|  6> %maxcore 8000
|  7>
|  8> %scf maxiter 300
|  9>      shift shift 0.2 erroff 0.1 end
| 10> end
| 11>
| 12> * xyzfile 0 1 trans1_2dimethylcycloh_ax_ax.xyz
| 13>
| 14>
| 15>                          ****END OF INPUT****

CARTESIAN COORDINATES (ANGSTROEM)
---------------------------------
  C     -0.710500    1.683320   -0.290520
  C      0.712150    1.682610    0.290570
  C      0.978910    0.407880    1.108840
  C      0.711450   -0.891690    0.313350
  C     -0.712300   -0.891000   -0.313370
  C     -0.978550    0.408860   -1.108790
  C      1.804580   -1.157000   -0.737670
  C     -1.805690   -1.155440    0.737610
  H      0.339340    0.423070    2.001840
  H      2.013290    0.403300    1.476710
  H      0.752300   -1.727250    1.027330
  H     -0.753910   -1.726470   -1.027420
  H      0.866430    2.567460    0.920760
  H      1.438860    1.760390   -0.529850
  H     -0.338980    0.423460   -2.001810
  H     -2.012940    0.405290   -1.476640
  H     -0.863900    2.568330   -0.920700
  H     -1.437130    1.761830    0.529910
  H      1.634540   -2.114430   -1.243720
  H      1.841780   -0.380520   -1.508800
  H      2.793980   -1.200080   -0.267460
  H     -1.636530   -2.113070    1.243570
  H     -1.842230   -0.379000    1.508820
  H     -2.795130   -1.197580    0.267370

 Total Charge           Charge          ....    0
 Multiplicity           Mult            ....    1
 Number of Electrons    NEL             ....   64
 Basis Dimension        Dim             ....  192

ORBITAL ENERGIES
----------------

  NO   OCC          E(Eh)            E(eV)
   0   2.0000     -11.224025      -305.4212
   1   2.0000     -11.223478      -305.4064
   2   2.0000     -11.218647      -305.2749
   3   2.0000     -11.218156      -305.2615
   4   2.0000     -11.217563      -305.2454
   5   2.0000     -11.217474      -305.2430
   6   2.0000     -11.215517      -305.1897
   7   2.0000     -11.215513      -305.1896
   8   2.0000      -1.119839       -30.4724
   9   2.0000      -1.025568       -27.9071
  10   2.0000      -1.016333       -27.6558
  11   2.0000      -0.946256       -25.7489
  12   2.0000      -0.885066       -24.0839
  13   2.0000      -0.810538       -22.0559
  14   2.0000      -0.809852       -22.0372
  15   2.0000      -0.706590       -19.2273
  16   2.0000      -0.651615       -17.7313
  17   2.0000      -0.617922       -16.8145
  18   2.0000      -0.606074       -16.4921
  19   2.0000      -0.575845       -15.6695
  20   2.0000      -0.560541       -15.2531
  21   2.0000      -0.548867       -14.9354
  22   2.0000      -0.544742       -14.8232
  23   2.0000      -0.535107       -14.5610
  24   2.0000      -0.500763       -13.6264
  25   2.0000      -0.492825       -13.4104
  26   2.0000      -0.476984       -12.9794
  27   2.0000      -0.467811       -12.7298
  28   2.0000      -0.465681       -12.6718
  29   2.0000      -0.430067       -11.7027
  30   2.0000      -0.417171       -11.3518
  31   2.0000      -0.413381       -11.2487
  32   0.0000       0.172431         4.6921
  33   0.0000       0.196390         5.3440
  34   0.0000       0.211820         5.7639
  35   0.0000       0.213446         5.8082
  36   0.0000       0.238641         6.4937

MULLIKEN ATOMIC CHARGES
-----------------------
   0 C :   -0.038753
   1 C :   -0.038756
   2 C :    0.006080
   3 C :   -0.169382
   4 C :   -0.169391
   5 C :    0.006077
   6 C :    0.026876
   7 C :    0.026873
   8 H :    0.021399
   9 H :    0.019712
  10 H :    0.008150
  11 H :    0.008153
  12 H :    0.021929
  13 H :    0.022630
  14 H :    0.021400
  15 H :    0.019715
  16 H :    0.021929
  17 H :    0.022629
  18 H :    0.026730
  19 H :    0.027054
  20 H :    0.027580
  21 H :    0.026732
  22 H :    0.027052
  23 H :    0.027581
Sum of atomic charges:    0.0000000

LOEWDIN ATOMIC CHARGES
----------------------
   0 C :   -0.033097
   1 C :   -0.033096
   2 C :   -0.027044
   3 C :   -0.035035
   4 C :   -0.035037
   5 C :   -0.027045
   6 C :   -0.045424
   7 C :   -0.045427
   8 H :    0.016069
   9 H :    0.017622
  10 H :    0.016853
  11 H :    0.016854
  12 H :    0.019056
  13 H :    0.014759
  14 H :    0.016071
  15 H :    0.017623
  16 H :    0.019056
  17 H :    0.014759
  18 H :    0.020182
  19 H :    0.015668
  20 H :    0.020390
  21 H :    0.020182
  22 H :    0.015668
  23 H :    0.020392

  Mayer bond orders larger than 0.1
B(  0-C ,  1-C ) :   1.0434 B(  0-C ,  5-C ) :   1.0383 B(  0-C , 16-H ) :   0.9728
B(  0-C , 17-H ) :   0.9655 B(  1-C ,  2-C ) :   1.0383 B(  1-C , 12-H ) :   0.9728
B(  1-C , 13-H ) :   0.9655 B(  2-C ,  3-C ) :   1.0326 B(  2-C ,  8-H ) :   0.9658
B(  2-C ,  9-H ) :   0.9699 B(  3-C ,  4-C ) :   1.0094 B(  3-C ,  6-C ) :   1.0470
B(  3-C , 10-H ) :   0.9595 B(  4-C ,  5-C ) :   1.0326 B(  4-C ,  7-C ) :   1.0470
B(  4-C , 11-H ) :   0.9595 B(  5-C , 14-H ) :   0.9658 B(  5-C , 15-H ) :   0.9699
B(  6-C , 18-H ) :   0.9795 B(  6-C , 19-H ) :   0.9763 B(  6-C , 20-H ) :   0.9805
B(  7-C , 21-H ) :   0.9795 B(  7-C , 22-H ) :   0.9763 B(  7-C , 23-H ) :   0.9805

E(0)                                       ...   -312.292529405
E(0)                                       ...   -312.292529405
E(CORR)(strong-pairs)                      ...     -1.251685294
E(CORR)(weak-pairs)                        ...     -0.000594409
E(CORR)(corrected)                         ...     -1.252279702
E(TOT)                                     ...   -313.544809107
E(CCSD(T))                                 ...   -313.583593727
FINAL SINGLE POINT ENERGY      -313.583593726692

DIPOLE MOMENT
-------------
                                X             Y             Z
Electronic contribution:      0.00027       0.55109       0.00010
Nuclear contribution   :     -0.00027      -0.56262      -0.00010
                        -----------------------------------------
Total Dipole Moment    :      0.00000      -0.01153      -0.00000
                        -----------------------------------------
Magnitude (a.u.)       :      0.01153
Magnitude (Debye)      :      0.02932

Rotational constants in cm-1:     0.072239     0.070084     0.050999
Rotational constants in MHz :  2165.682481  2101.050863  1528.900332

                             ****ORCA TERMINATED NORMALLY****
TOTAL RUN TIME: 0 days 0 hours 4 minutes 13 seconds 708 msec
