                         Program Version 4.1.x  -  STABLE  -
|  1> ! RHF DLPNO-CCSD(T) cc-pVDZ RIJK cc-pVTZ/JK cc-pVDZ/C
|  2> ! KDIIS SOSCF TightSCF TightPNO
|  3>
|  4> %pal nprocs 4 end
|  5>
|  6> %maxcore 8000
|  7>
|  8> %scf maxiter 300
|  9>      shift shift 0.2 erroff 0.1 end
| 10> end
| 11>
| 12> * xyzfile 0 1 trans1_2difluorocycloh_ax_ax.xyz
| 13>
| 14>
| 15>                          ****END OF INPUT****

CARTESIAN COORDINATES (ANGSTROEM)
---------------------------------
  C      1.625200   -0.745810    0.186930
  C      1.625440    0.745320   -0.186890
  C      0.357830    1.122200   -0.971510
  C     -0.916330    0.728830   -0.237440
  C     -0.916570   -0.728550    0.237410
  C      0.357420   -1.122310    0.971550
  F     -1.050650    1.523770    0.930110
  F     -1.051050   -1.523460   -0.930150
  H      0.323770    2.197060   -1.181320
  H      0.348850    0.604110   -1.939260
  H     -1.806590    0.919580   -0.845180
  H     -1.806930   -0.919020    0.845090
  H      1.682250    1.354050    0.724400
  H      2.511470    0.988020   -0.784460
  H      0.323010   -2.197150    1.181350
  H      0.348520   -0.604210    1.939300
  H      1.681840   -1.354540   -0.724380
  H      2.511150   -0.988790    0.784510

 Total Charge           Charge          ....    0
 Multiplicity           Mult            ....    1
 Number of Electrons    NEL             ....   64
 Basis Dimension        Dim             ....  162

ORBITAL ENERGIES
----------------

  NO   OCC          E(Eh)            E(eV)
   0   2.0000     -26.277105      -715.0364
   1   2.0000     -26.277103      -715.0363
   2   2.0000     -11.320108      -308.0358
   3   2.0000     -11.319495      -308.0191
   4   2.0000     -11.238380      -305.8119
   5   2.0000     -11.238375      -305.8117
   6   2.0000     -11.233815      -305.6876
   7   2.0000     -11.233234      -305.6718
   8   2.0000      -1.583729       -43.0955
   9   2.0000      -1.577949       -42.9382
  10   2.0000      -1.124402       -30.5965
  11   2.0000      -1.025325       -27.9005
  12   2.0000      -1.015293       -27.6275
  13   2.0000      -0.860906       -23.4264
  14   2.0000      -0.855551       -23.2807
  15   2.0000      -0.766806       -20.8659
  16   2.0000      -0.721370       -19.6295
  17   2.0000      -0.695686       -18.9306
  18   2.0000      -0.691720       -18.8227
  19   2.0000      -0.670956       -18.2577
  20   2.0000      -0.629813       -17.1381
  21   2.0000      -0.613554       -16.6956
  22   2.0000      -0.609535       -16.5863
  23   2.0000      -0.598407       -16.2835
  24   2.0000      -0.574544       -15.6341
  25   2.0000      -0.539232       -14.6733
  26   2.0000      -0.525957       -14.3120
  27   2.0000      -0.517555       -14.0834
  28   2.0000      -0.512178       -13.9371
  29   2.0000      -0.471565       -12.8319
  30   2.0000      -0.450012       -12.2455
  31   2.0000      -0.445815       -12.1312
  32   0.0000       0.175793         4.7836
  33   0.0000       0.204918         5.5761
  34   0.0000       0.210672         5.7327
  35   0.0000       0.221932         6.0391
  36   0.0000       0.241613         6.5746

MULLIKEN ATOMIC CHARGES
-----------------------
   0 C :   -0.051944
   1 C :   -0.051924
   2 C :   -0.041017
   3 C :    0.264883
   4 C :    0.264882
   5 C :   -0.041014
   6 F :   -0.379104
   7 F :   -0.379108
   8 H :    0.044660
   9 H :    0.047571
  10 H :    0.040795
  11 H :    0.040795
  12 H :    0.041993
  13 H :    0.032148
  14 H :    0.044661
  15 H :    0.047575
  16 H :    0.041999
  17 H :    0.032151
Sum of atomic charges:   -0.0000000

LOEWDIN ATOMIC CHARGES
----------------------
   0 C :   -0.030814
   1 C :   -0.030818
   2 C :   -0.036164
   3 C :    0.063682
   4 C :    0.063683
   5 C :   -0.036160
   6 F :   -0.128089
   7 F :   -0.128096
   8 H :    0.029821
   9 H :    0.031589
  10 H :    0.023713
  11 H :    0.023713
  12 H :    0.022528
  13 H :    0.023738
  14 H :    0.029819
  15 H :    0.031590
  16 H :    0.022530
  17 H :    0.023737

  Mayer bond orders larger than 0.1
B(  0-C ,  1-C ) :   1.0440 B(  0-C ,  5-C ) :   1.0381 B(  0-C , 16-H ) :   0.9643
B(  0-C , 17-H ) :   0.9728 B(  1-C ,  2-C ) :   1.0381 B(  1-C , 12-H ) :   0.9643
B(  1-C , 13-H ) :   0.9728 B(  2-C ,  3-C ) :   1.0316 B(  2-C ,  8-H ) :   0.9662
B(  2-C ,  9-H ) :   0.9564 B(  3-C ,  4-C ) :   1.0181 B(  3-C ,  6-F ) :   0.8555
B(  3-C , 10-H ) :   0.9686 B(  4-C ,  5-C ) :   1.0316 B(  4-C ,  7-F ) :   0.8555
B(  4-C , 11-H ) :   0.9686 B(  5-C , 14-H ) :   0.9662 B(  5-C , 15-H ) :   0.9564

E(0)                                       ...   -431.943034703
E(0)                                       ...   -431.943034703
E(CORR)(strong-pairs)                      ...     -1.278471215
E(CORR)(weak-pairs)                        ...     -0.000614747
E(CORR)(corrected)                         ...     -1.279085962
E(TOT)                                     ...   -433.222120665
E(CCSD(T))                                 ...   -433.256145216
FINAL SINGLE POINT ENERGY      -433.256145216136

DIPOLE MOMENT
-------------
                                X             Y             Z
Electronic contribution:     -7.82610       0.00115      -0.00008
Nuclear contribution   :      8.19669      -0.00119       0.00009
                        -----------------------------------------
Total Dipole Moment    :      0.37059      -0.00004       0.00001
                        -----------------------------------------
Magnitude (a.u.)       :      0.37059
Magnitude (Debye)      :      0.94196

Rotational constants in cm-1:     0.075249     0.071956     0.053114
Rotational constants in MHz :  2255.901056  2157.176081  1592.308339

                             ****ORCA TERMINATED NORMALLY****
TOTAL RUN TIME: 0 days 0 hours 2 minutes 55 seconds 245 msec
