                         Program Version 4.1.x  -  STABLE  -
|  1> ! RHF DLPNO-CCSD(T) cc-pVDZ RIJK cc-pVTZ/JK cc-pVDZ/C
|  2> ! KDIIS SOSCF TightSCF TightPNO
|  3>
|  4> %pal nprocs 4 end
|  5>
|  6> %maxcore 8000
|  7>
|  8> %scf maxiter 300
|  9>      shift shift 0.2 erroff 0.1 end
| 10> end
| 11>
| 12> * xyzfile 0 1 trans1_2dichlorocycloh_ax_ax.xyz
| 13>
| 14>
| 15>                          ****END OF INPUT****

CARTESIAN COORDINATES (ANGSTROEM)
---------------------------------
  C     -0.588270    1.902130   -0.494610
  C      0.588580    1.902020    0.494630
  C      0.591140    0.633740    1.361340
  C      0.547680   -0.654700    0.538660
  C     -0.547770   -0.654640   -0.538640
  C     -0.591110    0.633820   -1.361300
  Cl     2.159380   -0.926150   -0.320240
  Cl    -2.159510   -0.925980    0.320210
  H     -0.299790    0.625160    2.002980
  H      1.461440    0.608310    2.024420
  H      0.443840   -1.530600    1.179040
  H     -0.443990   -1.530530   -1.179050
  H      0.538440    2.783300    1.144160
  H      1.535130    1.969550   -0.056190
  H      0.299730    0.625100   -2.003070
  H     -1.461490    0.608540   -2.024270
  H     -0.537920    2.783370   -1.144160
  H     -1.534810    1.969900    0.056200

 Total Charge           Charge          ....    0
 Multiplicity           Mult            ....    1
 Number of Electrons    NEL             ....   80
 Basis Dimension        Dim             ....  170

ORBITAL ENERGIES
----------------

  NO   OCC          E(Eh)            E(eV)
   0   2.0000    -104.820281     -2852.3048
   1   2.0000    -104.820280     -2852.3048
   2   2.0000     -11.318903      -308.0030
   3   2.0000     -11.318310      -307.9869
   4   2.0000     -11.247839      -306.0693
   5   2.0000     -11.247834      -306.0691
   6   2.0000     -11.237418      -305.7857
   7   2.0000     -11.236837      -305.7699
   8   2.0000     -10.546979      -286.9979
   9   2.0000     -10.546971      -286.9977
  10   2.0000      -8.014317      -218.0806
  11   2.0000      -8.014316      -218.0806
  12   2.0000      -8.011263      -217.9976
  13   2.0000      -8.011263      -217.9975
  14   2.0000      -8.011192      -217.9956
  15   2.0000      -8.011192      -217.9956
  16   2.0000      -1.185334       -32.2546
  17   2.0000      -1.110115       -30.2078
  18   2.0000      -1.079534       -29.3756
  19   2.0000      -1.017788       -27.6954
  20   2.0000      -0.978942       -26.6384
  21   2.0000      -0.855634       -23.2830
  22   2.0000      -0.848080       -23.0774
  23   2.0000      -0.740377       -20.1467
  24   2.0000      -0.691543       -18.8178
  25   2.0000      -0.642582       -17.4855
  26   2.0000      -0.623942       -16.9783
  27   2.0000      -0.594771       -16.1845
  28   2.0000      -0.574405       -15.6304
  29   2.0000      -0.564287       -15.3550
  30   2.0000      -0.561444       -15.2777
  31   2.0000      -0.510959       -13.9039
  32   2.0000      -0.504919       -13.7396
  33   2.0000      -0.475783       -12.9467
  34   2.0000      -0.472787       -12.8652
  35   2.0000      -0.465371       -12.6634
  36   2.0000      -0.450606       -12.2616
  37   2.0000      -0.433850       -11.8057
  38   2.0000      -0.432929       -11.7806
  39   2.0000      -0.425773       -11.5859
  40   0.0000       0.159638         4.3440
  41   0.0000       0.167598         4.5606
  42   0.0000       0.194089         5.2814
  43   0.0000       0.206687         5.6243
  44   0.0000       0.224710         6.1147

MULLIKEN ATOMIC CHARGES
-----------------------
   0 C :   -0.049781
   1 C :   -0.049789
   2 C :    0.020169
   3 C :   -0.079936
   4 C :   -0.079937
   5 C :    0.020164
   6 Cl:   -0.169501
   7 Cl:   -0.169498
   8 H :    0.055942
   9 H :    0.051146
  10 H :    0.093126
  11 H :    0.093129
  12 H :    0.034628
  13 H :    0.044213
  14 H :    0.055943
  15 H :    0.051146
  16 H :    0.034627
  17 H :    0.044209
Sum of atomic charges:   -0.0000000

LOEWDIN ATOMIC CHARGES
----------------------
   0 C :   -0.031511
   1 C :   -0.031516
   2 C :   -0.035491
   3 C :   -0.059574
   4 C :   -0.059580
   5 C :   -0.035491
   6 Cl:   -0.012004
   7 Cl:   -0.012004
   8 H :    0.030701
   9 H :    0.029888
  10 H :    0.031574
  11 H :    0.031575
  12 H :    0.025349
  13 H :    0.021073
  14 H :    0.030702
  15 H :    0.029887
  16 H :    0.025348
  17 H :    0.021074

  Mayer bond orders larger than 0.1
B(  0-C ,  1-C ) :   1.0428 B(  0-C ,  5-C ) :   1.0401 B(  0-C , 16-H ) :   0.9720
B(  0-C , 17-H ) :   0.9645 B(  1-C ,  2-C ) :   1.0401 B(  1-C , 12-H ) :   0.9720
B(  1-C , 13-H ) :   0.9645 B(  2-C ,  3-C ) :   1.0105 B(  2-C ,  8-H ) :   0.9539
B(  2-C ,  9-H ) :   0.9675 B(  3-C ,  4-C ) :   0.9759 B(  3-C ,  6-Cl) :   0.9820
B(  3-C , 10-H ) :   0.9678 B(  4-C ,  5-C ) :   1.0105 B(  4-C ,  7-Cl) :   0.9820
B(  4-C , 11-H ) :   0.9678 B(  5-C , 14-H ) :   0.9539 B(  5-C , 15-H ) :   0.9675

E(0)                                       ...  -1152.073653887
E(0)                                       ...  -1152.073653887
E(CORR)(strong-pairs)                      ...     -1.202756539
E(CORR)(weak-pairs)                        ...     -0.000531603
E(CORR)(corrected)                         ...     -1.203288142
E(TOT)                                     ...  -1153.276942029
E(CCSD(T))                                 ...  -1153.313703232
FINAL SINGLE POINT ENERGY     -1153.313703231731

DIPOLE MOMENT
-------------
                                X             Y             Z
Electronic contribution:     -0.00073     -10.82746      -0.00009
Nuclear contribution   :      0.00076      11.34987       0.00010
                        -----------------------------------------
Total Dipole Moment    :      0.00003       0.52241       0.00001
                        -----------------------------------------
Magnitude (a.u.)       :      0.52241
Magnitude (Debye)      :      1.32785

Rotational constants in cm-1:     0.059640     0.037360     0.030020
Rotational constants in MHz :  1787.974145  1120.032616   899.962537

                             ****ORCA TERMINATED NORMALLY****
TOTAL RUN TIME: 0 days 0 hours 3 minutes 49 seconds 748 msec
