                         Program Version 4.1.x  -  STABLE  -
|  1> ! RHF DLPNO-CCSD(T) cc-pVDZ RIJK cc-pVTZ/JK cc-pVDZ/C
|  2> ! KDIIS SOSCF TightSCF TightPNO
|  3>
|  4> %pal nprocs 4 end
|  5>
|  6> %maxcore 8000
|  7>
|  8> %scf maxiter 300
|  9>      shift shift 0.2 erroff 0.1 end
| 10> end
| 11>
| 12> * xyzfile 0 1 trans1_2difluorocycloh_eq_eq.xyz
| 13>
| 14>
| 15>                          ****END OF INPUT****

CARTESIAN COORDINATES (ANGSTROEM)
---------------------------------
  C     -1.876720    0.706520   -0.302110
  C     -1.876710   -0.706560    0.302100
  C     -0.604060   -1.473760   -0.093020
  C      0.656730   -0.702200    0.290550
  C      0.656710    0.702220   -0.290540
  C     -0.604110    1.473740    0.093040
  F      1.780870   -1.401810   -0.192100
  F      1.780840    1.401840    0.192090
  H     -0.570880   -2.461240    0.378950
  H     -0.588380   -1.638140   -1.178540
  H      0.777390   -0.642040    1.379400
  H      0.777340    0.642060   -1.379390
  H     -1.941260   -0.634960    1.396820
  H     -2.759960   -1.265620   -0.026270
  H     -0.570960    2.461230   -0.378930
  H     -0.588420    1.638140    1.178550
  H     -1.941260    0.634930   -1.396830
  H     -2.759980    1.265580    0.026250

 Total Charge           Charge          ....    0
 Multiplicity           Mult            ....    1
 Number of Electrons    NEL             ....   64
 Basis Dimension        Dim             ....  162

ORBITAL ENERGIES
----------------

  NO   OCC          E(Eh)            E(eV)
   0   2.0000     -26.270605      -714.8595
   1   2.0000     -26.270602      -714.8594
   2   2.0000     -11.318780      -307.9997
   3   2.0000     -11.318127      -307.9819
   4   2.0000     -11.246586      -306.0352
   5   2.0000     -11.246040      -306.0203
   6   2.0000     -11.244986      -305.9916
   7   2.0000     -11.244952      -305.9907
   8   2.0000      -1.582214       -43.0542
   9   2.0000      -1.570395       -42.7326
  10   2.0000      -1.137783       -30.9607
  11   2.0000      -1.027034       -27.9470
  12   2.0000      -1.018733       -27.7211
  13   2.0000      -0.865326       -23.5467
  14   2.0000      -0.853779       -23.2325
  15   2.0000      -0.794055       -21.6073
  16   2.0000      -0.703308       -19.1380
  17   2.0000      -0.700306       -19.0563
  18   2.0000      -0.679349       -18.4860
  19   2.0000      -0.666167       -18.1273
  20   2.0000      -0.654161       -17.8006
  21   2.0000      -0.617052       -16.7908
  22   2.0000      -0.610930       -16.6243
  23   2.0000      -0.591299       -16.0901
  24   2.0000      -0.588841       -16.0232
  25   2.0000      -0.555077       -15.1044
  26   2.0000      -0.509057       -13.8522
  27   2.0000      -0.508543       -13.8382
  28   2.0000      -0.501322       -13.6417
  29   2.0000      -0.483339       -13.1523
  30   2.0000      -0.475119       -12.9286
  31   2.0000      -0.455128       -12.3847
  32   0.0000       0.163542         4.4502
  33   0.0000       0.178038         4.8447
  34   0.0000       0.205588         5.5943
  35   0.0000       0.222861         6.0643
  36   0.0000       0.240267         6.5380

MULLIKEN ATOMIC CHARGES
-----------------------
   0 C :   -0.060356
   1 C :   -0.060357
   2 C :   -0.052175
   3 C :    0.284111
   4 C :    0.284117
   5 C :   -0.052181
   6 F :   -0.367722
   7 F :   -0.367715
   8 H :    0.047599
   9 H :    0.041727
  10 H :    0.034894
  11 H :    0.034892
  12 H :    0.033735
  13 H :    0.038185
  14 H :    0.047599
  15 H :    0.041725
  16 H :    0.033736
  17 H :    0.038185
Sum of atomic charges:   -0.0000000

LOEWDIN ATOMIC CHARGES
----------------------
   0 C :   -0.031680
   1 C :   -0.031679
   2 C :   -0.033584
   3 C :    0.054183
   4 C :    0.054178
   5 C :   -0.033586
   6 F :   -0.113275
   7 F :   -0.113264
   8 H :    0.030663
   9 H :    0.025590
  10 H :    0.021276
  11 H :    0.021275
  12 H :    0.020208
  13 H :    0.026617
  14 H :    0.030664
  15 H :    0.025588
  16 H :    0.020208
  17 H :    0.026619

  Mayer bond orders larger than 0.1
B(  0-C ,  1-C ) :   1.0364 B(  0-C ,  5-C ) :   1.0316 B(  0-C , 16-H ) :   0.9651
B(  0-C , 17-H ) :   0.9707 B(  1-C ,  2-C ) :   1.0316 B(  1-C , 12-H ) :   0.9651
B(  1-C , 13-H ) :   0.9707 B(  2-C ,  3-C ) :   1.0311 B(  2-C ,  8-H ) :   0.9667
B(  2-C ,  9-H ) :   0.9585 B(  3-C ,  4-C ) :   1.0189 B(  3-C ,  6-F ) :   0.8719
B(  3-C , 10-H ) :   0.9564 B(  4-C ,  5-C ) :   1.0311 B(  4-C ,  7-F ) :   0.8719
B(  4-C , 11-H ) :   0.9564 B(  5-C , 14-H ) :   0.9667 B(  5-C , 15-H ) :   0.9585

E(0)                                       ...   -431.941140418
E(0)                                       ...   -431.941140418
E(CORR)(strong-pairs)                      ...     -1.278771394
E(CORR)(weak-pairs)                        ...     -0.000661550
E(CORR)(corrected)                         ...     -1.279432944
E(TOT)                                     ...   -433.220573362
E(CCSD(T))                                 ...   -433.254660884
FINAL SINGLE POINT ENERGY      -433.254660883900

DIPOLE MOMENT
-------------
                                X             Y             Z
Electronic contribution:     12.16463       0.00009      -0.00000
Nuclear contribution   :    -13.69011      -0.00009       0.00001
                        -----------------------------------------
Total Dipole Moment    :     -1.52548       0.00000       0.00001
                        -----------------------------------------
Magnitude (a.u.)       :      1.52548
Magnitude (Debye)      :      3.87746

Rotational constants in cm-1:     0.088788     0.063641     0.040002
Rotational constants in MHz :  2661.803765  1907.895794  1199.224620

                             ****ORCA TERMINATED NORMALLY****
TOTAL RUN TIME: 0 days 0 hours 2 minutes 54 seconds 339 msec
