                         Program Version 4.1.x  -  STABLE  -
|  1> ! RHF DLPNO-CCSD(T) cc-pVDZ RIJK cc-pVTZ/JK cc-pVDZ/C
|  2> ! KDIIS SOSCF TightSCF TightPNO
|  3>
|  4> %pal nprocs 4 end
|  5>
|  6> %maxcore 8000
|  7>
|  8> %scf maxiter 300
|  9>      shift shift 0.2 erroff 0.1 end
| 10> end
| 11>
| 12> * xyzfile 0 1 trimethylsilylcyclohexane_ax.xyz
| 13>
| 14>
| 15>                          ****END OF INPUT****

CARTESIAN COORDINATES (ANGSTROEM)
---------------------------------
  C      0.200510    0.000030   -0.972520
  C      1.084930    1.269100   -0.869430
  C      2.007990    1.269690    0.361090
  C      2.871550   -0.000010    0.417700
  C      2.008010   -1.269730    0.360990
  C      1.084910   -1.269020   -0.869520
  Si    -1.404810    0.000010    0.083890
  C     -2.411960   -1.539550   -0.385240
  C     -1.174940   -0.000440    1.969160
  C     -2.411660    1.539950   -0.384650
  H      2.648390    2.160730    0.341280
  H      1.409120    1.339710    1.278700
  H      3.490480   -0.000050    1.323770
  H      3.566320    0.000030   -0.435350
  H      1.409170   -1.339830    1.278600
  H      2.648420   -2.160770    0.341080
  H      1.718050    1.326520   -1.768810
  H      0.468080    2.176290   -0.877580
  H      0.468030   -2.176200   -0.877690
  H      1.718000   -1.326430   -1.768920
  H     -0.234500    0.000090   -1.986440
  H     -2.156800   -0.000390    2.458780
  H     -0.633090   -0.885530    2.319560
  H     -0.632750    0.884230    2.320050
  H     -3.393040    1.521560    0.104220
  H     -1.911930    2.466610   -0.080260
  H     -2.582290    1.594740   -1.466390
  H     -3.393310   -1.521250    0.103700
  H     -2.582670   -1.593810   -1.467000
  H     -1.912360   -2.466440   -0.081330

 Total Charge           Charge          ....    0
 Multiplicity           Mult            ....    1
 Number of Electrons    NEL             ....   88
 Basis Dimension        Dim             ....  244

ORBITAL ENERGIES
----------------

  NO   OCC          E(Eh)            E(eV)
   0   2.0000     -68.755470     -1870.9315
   1   2.0000     -11.222171      -305.3708
   2   2.0000     -11.222170      -305.3708
   3   2.0000     -11.219424      -305.2960
   4   2.0000     -11.219034      -305.2854
   5   2.0000     -11.218601      -305.2737
   6   2.0000     -11.209191      -305.0176
   7   2.0000     -11.203090      -304.8516
   8   2.0000     -11.201462      -304.8073
   9   2.0000     -11.201455      -304.8071
  10   2.0000      -6.103476      -166.0840
  11   2.0000      -4.209555      -114.5478
  12   2.0000      -4.209534      -114.5473
  13   2.0000      -4.209261      -114.5398
  14   2.0000      -1.105005       -30.0687
  15   2.0000      -0.997453       -27.1421
  16   2.0000      -0.997274       -27.1372
  17   2.0000      -0.954867       -25.9832
  18   2.0000      -0.916884       -24.9497
  19   2.0000      -0.915822       -24.9208
  20   2.0000      -0.825083       -22.4516
  21   2.0000      -0.822718       -22.3873
  22   2.0000      -0.740598       -20.1527
  23   2.0000      -0.645326       -17.5602
  24   2.0000      -0.620344       -16.8804
  25   2.0000      -0.607968       -16.5436
  26   2.0000      -0.596074       -16.2200
  27   2.0000      -0.570676       -15.5289
  28   2.0000      -0.554082       -15.0773
  29   2.0000      -0.551020       -14.9940
  30   2.0000      -0.542200       -14.7540
  31   2.0000      -0.535744       -14.5783
  32   2.0000      -0.535212       -14.5639
  33   2.0000      -0.525312       -14.2945
  34   2.0000      -0.516988       -14.0680
  35   2.0000      -0.513684       -13.9780
  36   2.0000      -0.508699       -13.8424
  37   2.0000      -0.476736       -12.9726
  38   2.0000      -0.459162       -12.4944
  39   2.0000      -0.429604       -11.6901
  40   2.0000      -0.428796       -11.6681
  41   2.0000      -0.413241       -11.2449
  42   2.0000      -0.411597       -11.2001
  43   2.0000      -0.382260       -10.4018
  44   0.0000       0.158417         4.3107
  45   0.0000       0.188911         5.1405
  46   0.0000       0.197720         5.3802
  47   0.0000       0.201248         5.4762
  48   0.0000       0.220011         5.9868

MULLIKEN ATOMIC CHARGES
-----------------------
   0 C :   -0.365753
   1 C :    0.006195
   2 C :   -0.042749
   3 C :   -0.040898
   4 C :   -0.042750
   5 C :    0.006194
   6 Si:    0.743140
   7 C :   -0.303900
   8 C :   -0.306856
   9 C :   -0.303899
  10 H :    0.022692
  11 H :    0.025278
  12 H :    0.020632
  13 H :    0.021367
  14 H :    0.025283
  15 H :    0.022695
  16 H :    0.018536
  17 H :    0.021425
  18 H :    0.021419
  19 H :    0.018538
  20 H :    0.029427
  21 H :    0.043271
  22 H :    0.047424
  23 H :    0.047417
  24 H :    0.044243
  25 H :    0.044845
  26 H :    0.043850
  27 H :    0.044244
  28 H :    0.043848
  29 H :    0.044843
Sum of atomic charges:    0.0000000

LOEWDIN ATOMIC CHARGES
----------------------
   0 C :   -0.160311
   1 C :   -0.031618
   2 C :   -0.034342
   3 C :   -0.032401
   4 C :   -0.034338
   5 C :   -0.031622
   6 Si:    0.524098
   7 C :   -0.211443
   8 C :   -0.214998
   9 C :   -0.211442
  10 H :    0.019375
  11 H :    0.015349
  12 H :    0.018478
  13 H :    0.015323
  14 H :    0.015349
  15 H :    0.019376
  16 H :    0.015241
  17 H :    0.017345
  18 H :    0.017345
  19 H :    0.015242
  20 H :    0.026856
  21 H :    0.029245
  22 H :    0.025390
  23 H :    0.025383
  24 H :    0.028137
  25 H :    0.025869
  26 H :    0.027555
  27 H :    0.028136
  28 H :    0.027555
  29 H :    0.025869

  Mayer bond orders larger than 0.1
B(  0-C ,  1-C ) :   1.0402 B(  0-C ,  5-C ) :   1.0403 B(  0-C ,  6-Si) :   0.9292
B(  0-C , 20-H ) :   0.9372 B(  1-C ,  2-C ) :   1.0420 B(  1-C , 16-H ) :   0.9622
B(  1-C , 17-H ) :   0.9721 B(  2-C ,  3-C ) :   1.0448 B(  2-C , 10-H ) :   0.9725
B(  2-C , 11-H ) :   0.9629 B(  3-C ,  4-C ) :   1.0448 B(  3-C , 12-H ) :   0.9729
B(  3-C , 13-H ) :   0.9647 B(  4-C ,  5-C ) :   1.0420 B(  4-C , 14-H ) :   0.9629
B(  4-C , 15-H ) :   0.9725 B(  5-C , 18-H ) :   0.9721 B(  5-C , 19-H ) :   0.9622
B(  6-Si,  7-C ) :   1.0190 B(  6-Si,  8-C ) :   1.0046 B(  6-Si,  9-C ) :   1.0190
B(  7-C , 27-H ) :   0.9698 B(  7-C , 28-H ) :   0.9692 B(  7-C , 29-H ) :   0.9688
B(  8-C , 21-H ) :   0.9689 B(  8-C , 22-H ) :   0.9709 B(  8-C , 23-H ) :   0.9709
B(  9-C , 24-H ) :   0.9698 B(  9-C , 25-H ) :   0.9688 B(  9-C , 26-H ) :   0.9692

E(0)                                       ...   -641.448442763
E(0)                                       ...   -641.448442763
E(CORR)(strong-pairs)                      ...     -1.527096822
E(CORR)(weak-pairs)                        ...     -0.000954806
E(CORR)(corrected)                         ...     -1.528051628
E(TOT)                                     ...   -642.976494392
E(CCSD(T))                                 ...   -643.023449894
FINAL SINGLE POINT ENERGY      -643.023449894353

DIPOLE MOMENT
-------------
                                X             Y             Z
Electronic contribution:     -0.17449       0.00023      -1.13125
Nuclear contribution   :      0.20782      -0.00022       1.11512
                        -----------------------------------------
Total Dipole Moment    :      0.03333       0.00002      -0.01613
                        -----------------------------------------
Magnitude (a.u.)       :      0.03703
Magnitude (Debye)      :      0.09412

Rotational constants in cm-1:     0.054762     0.025568     0.023422
Rotational constants in MHz :  1641.710568   766.509870   702.166761

                             ****ORCA TERMINATED NORMALLY****
TOTAL RUN TIME: 0 days 0 hours 7 minutes 43 seconds 767 msec
