                         Program Version 4.1.x  -  STABLE  -
|  1> ! RHF DLPNO-CCSD(T) cc-pVDZ RIJK cc-pVTZ/JK cc-pVDZ/C
|  2> ! KDIIS SOSCF TightSCF TightPNO
|  3>
|  4> %pal nprocs 4 end
|  5>
|  6> %maxcore 8000
|  7>
|  8> %scf maxiter 300
|  9>      shift shift 0.2 erroff 0.1 end
| 10> end
| 11>
| 12> * xyzfile 0 1 trimethylsilylcyclohexane_eq.xyz
| 13>
| 14>
| 15>                          ****END OF INPUT****

CARTESIAN COORDINATES (ANGSTROEM)
---------------------------------
  C      0.267880   -0.000010   -0.381010
  C      0.996490   -1.268050    0.124420
  C      2.491430   -1.268260   -0.242150
  C      3.198880    0.000000    0.258330
  C      2.491450    1.268260   -0.242160
  C      0.996500    1.268070    0.124410
  Si    -1.608370    0.000000   -0.009540
  C     -2.403680   -1.541420   -0.778620
  C     -1.933510   -0.000010    1.859430
  C     -2.403730    1.541430   -0.778600
  H      2.979260   -2.162380    0.167280
  H      2.591590   -1.329950   -1.335820
  H      4.249750    0.000000   -0.057580
  H      3.204220    0.000000    1.358530
  H      2.591590    1.329930   -1.335830
  H      2.979270    2.162380    0.167280
  H      0.902370   -1.330550    1.219140
  H      0.521050   -2.170960   -0.278450
  H      0.521060    2.170980   -0.278480
  H      0.902380    1.330600    1.219130
  H      0.339900   -0.000010   -1.483420
  H     -3.010890   -0.000010    2.063470
  H     -1.506060   -0.885060    2.344460
  H     -1.506050    0.885010    2.344490
  H     -3.490350    1.532430   -0.631870
  H     -2.019260    2.465680   -0.332540
  H     -2.216750    1.590130   -1.858080
  H     -3.490330   -1.532440   -0.632030
  H     -2.216570   -1.590210   -1.858070
  H     -2.019260   -2.465640   -0.332460

 Total Charge           Charge          ....    0
 Multiplicity           Mult            ....    1
 Number of Electrons    NEL             ....   88
 Basis Dimension        Dim             ....  244

ORBITAL ENERGIES
----------------

  NO   OCC          E(Eh)            E(eV)
   0   2.0000     -68.753735     -1870.8843
   1   2.0000     -11.222029      -305.3669
   2   2.0000     -11.222025      -305.3668
   3   2.0000     -11.218935      -305.2827
   4   2.0000     -11.218578      -305.2730
   5   2.0000     -11.218106      -305.2602
   6   2.0000     -11.206733      -304.9507
   7   2.0000     -11.201904      -304.8193
   8   2.0000     -11.201901      -304.8192
   9   2.0000     -11.201892      -304.8190
  10   2.0000      -6.102128      -166.0474
  11   2.0000      -4.208187      -114.5106
  12   2.0000      -4.208146      -114.5095
  13   2.0000      -4.207961      -114.5044
  14   2.0000      -1.105672       -30.0869
  15   2.0000      -0.997616       -27.1465
  16   2.0000      -0.996808       -27.1245
  17   2.0000      -0.952801       -25.9270
  18   2.0000      -0.916530       -24.9400
  19   2.0000      -0.916232       -24.9319
  20   2.0000      -0.825239       -22.4559
  21   2.0000      -0.818979       -22.2856
  22   2.0000      -0.746425       -20.3113
  23   2.0000      -0.649713       -17.6796
  24   2.0000      -0.617668       -16.8076
  25   2.0000      -0.595866       -16.2143
  26   2.0000      -0.591956       -16.1079
  27   2.0000      -0.574965       -15.6456
  28   2.0000      -0.557112       -15.1598
  29   2.0000      -0.554581       -15.0909
  30   2.0000      -0.552862       -15.0441
  31   2.0000      -0.535988       -14.5850
  32   2.0000      -0.530177       -14.4269
  33   2.0000      -0.524580       -14.2745
  34   2.0000      -0.516785       -14.0624
  35   2.0000      -0.507413       -13.8074
  36   2.0000      -0.482651       -13.1336
  37   2.0000      -0.476390       -12.9632
  38   2.0000      -0.470959       -12.8154
  39   2.0000      -0.445076       -12.1111
  40   2.0000      -0.429885       -11.6978
  41   2.0000      -0.417121       -11.3504
  42   2.0000      -0.411819       -11.2062
  43   2.0000      -0.375329       -10.2132
  44   0.0000       0.161984         4.4078
  45   0.0000       0.188386         5.1263
  46   0.0000       0.192408         5.2357
  47   0.0000       0.202853         5.5199
  48   0.0000       0.220330         5.9955

MULLIKEN ATOMIC CHARGES
-----------------------
   0 C :   -0.384520
   1 C :   -0.022004
   2 C :   -0.012286
   3 C :   -0.043787
   4 C :   -0.012280
   5 C :   -0.022026
   6 Si:    0.766474
   7 C :   -0.309122
   8 C :   -0.308311
   9 C :   -0.309122
  10 H :    0.020218
  11 H :    0.020722
  12 H :    0.021822
  13 H :    0.020758
  14 H :    0.020724
  15 H :    0.020219
  16 H :    0.025088
  17 H :    0.027477
  18 H :    0.027480
  19 H :    0.025089
  20 H :    0.025244
  21 H :    0.044159
  22 H :    0.044898
  23 H :    0.044899
  24 H :    0.044473
  25 H :    0.045355
  26 H :    0.044265
  27 H :    0.044475
  28 H :    0.044265
  29 H :    0.045354
Sum of atomic charges:    0.0000000

LOEWDIN ATOMIC CHARGES
----------------------
   0 C :   -0.158965
   1 C :   -0.034750
   2 C :   -0.031952
   3 C :   -0.034250
   4 C :   -0.031953
   5 C :   -0.034746
   6 Si:    0.529775
   7 C :   -0.212672
   8 C :   -0.213561
   9 C :   -0.212672
  10 H :    0.017959
  11 H :    0.015286
  12 H :    0.018500
  13 H :    0.015261
  14 H :    0.015286
  15 H :    0.017959
  16 H :    0.015402
  17 H :    0.018905
  18 H :    0.018905
  19 H :    0.015400
  20 H :    0.018421
  21 H :    0.028674
  22 H :    0.027122
  23 H :    0.027121
  24 H :    0.028290
  25 H :    0.026505
  26 H :    0.027975
  27 H :    0.028292
  28 H :    0.027975
  29 H :    0.026506

  Mayer bond orders larger than 0.1
B(  0-C ,  1-C ) :   1.0255 B(  0-C ,  5-C ) :   1.0255 B(  0-C ,  6-Si) :   0.9360
B(  0-C , 20-H ) :   0.9352 B(  1-C ,  2-C ) :   1.0590 B(  1-C , 16-H ) :   0.9592
B(  1-C , 17-H ) :   0.9680 B(  2-C ,  3-C ) :   1.0460 B(  2-C , 10-H ) :   0.9699
B(  2-C , 11-H ) :   0.9621 B(  3-C ,  4-C ) :   1.0460 B(  3-C , 12-H ) :   0.9727
B(  3-C , 13-H ) :   0.9638 B(  4-C ,  5-C ) :   1.0590 B(  4-C , 14-H ) :   0.9621
B(  4-C , 15-H ) :   0.9699 B(  5-C , 18-H ) :   0.9680 B(  5-C , 19-H ) :   0.9592
B(  6-Si,  7-C ) :   1.0163 B(  6-Si,  8-C ) :   1.0081 B(  6-Si,  9-C ) :   1.0163
B(  7-C , 27-H ) :   0.9703 B(  7-C , 28-H ) :   0.9694 B(  7-C , 29-H ) :   0.9690
B(  8-C , 21-H ) :   0.9700 B(  8-C , 22-H ) :   0.9695 B(  8-C , 23-H ) :   0.9695
B(  9-C , 24-H ) :   0.9703 B(  9-C , 25-H ) :   0.9690 B(  9-C , 26-H ) :   0.9694

E(0)                                       ...   -641.453936123
E(0)                                       ...   -641.453936123
E(CORR)(strong-pairs)                      ...     -1.525385763
E(CORR)(weak-pairs)                        ...     -0.001163108
E(CORR)(corrected)                         ...     -1.526548871
E(TOT)                                     ...   -642.980484994
E(CCSD(T))                                 ...   -643.027221870
FINAL SINGLE POINT ENERGY      -643.027221869508

DIPOLE MOMENT
-------------
                                X             Y             Z
Electronic contribution:     -0.40714       0.00005      -0.51499
Nuclear contribution   :      0.42766      -0.00007       0.49657
                        -----------------------------------------
Total Dipole Moment    :      0.02052      -0.00002      -0.01842
                        -----------------------------------------
Magnitude (a.u.)       :      0.02757
Magnitude (Debye)      :      0.07008

Rotational constants in cm-1:     0.060478     0.021995     0.019697
Rotational constants in MHz :  1813.090244   659.384907   590.502624

                             ****ORCA TERMINATED NORMALLY****
TOTAL RUN TIME: 0 days 0 hours 6 minutes 53 seconds 282 msec
