                         Program Version 4.2.1 -  RELEASE  -
|  1> ! RHF DLPNO-CCSD(T) cc-pVDZ RIJK cc-pVTZ/JK cc-pVDZ/C
|  2> ! KDIIS SOSCF TightSCF TightPNO
|  3>
|  4> %pal nprocs 10 end
|  5>
|  6> %maxcore 8000
|  7>
|  8> %scf maxiter 300
|  9>      shift shift 0.2 erroff 0.1 end
| 10> end
| 11>
| 12> * xyzfile 0 1 trimethylphosphate_C3.xyz
| 13>
| 14>
| 15>                          ****END OF INPUT****

CARTESIAN COORDINATES (ANGSTROEM)
---------------------------------
  C      2.516340   -0.770580   -0.054230
  O      1.177410   -0.836300   -0.588580
  P      0.000700   -0.000740    0.115810
  O     -1.311320   -0.600030   -0.590440
  C     -1.928920   -1.789320   -0.054650
  O     -0.000950   -0.001400    1.601380
  O      0.137200    1.436190   -0.588470
  C     -0.590080    2.562290   -0.054080
  H      3.090720   -1.527660   -0.589010
  H      2.947940    0.217750   -0.238970
  H      2.511730   -0.984270    1.017540
  H     -0.226530    3.437760   -0.593020
  H     -1.662380    2.438510   -0.233280
  H     -0.397970    2.668670    1.016490
  H     -2.869390   -1.908050   -0.593630
  H     -1.290410   -2.659940   -0.232340
  H     -2.116860   -1.673570    1.015680

 Total Charge           Charge          ....    0
 Multiplicity           Mult            ....    1
 Number of Electrons    NEL             ....   74
 Basis Dimension        Dim             ....  161

ORBITAL ENERGIES
----------------

  NO   OCC          E(Eh)            E(eV)
   0   2.0000     -80.122762     -2180.2512
   1   2.0000     -20.587768      -560.2216
   2   2.0000     -20.587746      -560.2210
   3   2.0000     -20.587688      -560.2195
   4   2.0000     -20.506040      -557.9977
   5   2.0000     -11.298912      -307.4590
   6   2.0000     -11.298895      -307.4586
   7   2.0000     -11.298852      -307.4574
   8   2.0000      -7.641120      -207.9254
   9   2.0000      -5.538858      -150.7200
  10   2.0000      -5.538857      -150.7200
  11   2.0000      -5.538803      -150.7185
  12   2.0000      -1.444697       -39.3122
  13   2.0000      -1.375444       -37.4277
  14   2.0000      -1.375341       -37.4249
  15   2.0000      -1.286388       -35.0044
  16   2.0000      -0.986211       -26.8362
  17   2.0000      -0.942997       -25.6603
  18   2.0000      -0.942975       -25.6597
  19   2.0000      -0.780312       -21.2334
  20   2.0000      -0.707717       -19.2580
  21   2.0000      -0.707632       -19.2556
  22   2.0000      -0.665646       -18.1132
  23   2.0000      -0.648553       -17.6480
  24   2.0000      -0.648495       -17.6464
  25   2.0000      -0.616541       -16.7769
  26   2.0000      -0.614378       -16.7181
  27   2.0000      -0.614305       -16.7161
  28   2.0000      -0.586992       -15.9729
  29   2.0000      -0.523832       -14.2542
  30   2.0000      -0.523826       -14.2540
  31   2.0000      -0.502040       -13.6612
  32   2.0000      -0.487668       -13.2701
  33   2.0000      -0.487627       -13.2690
  34   2.0000      -0.477034       -12.9808
  35   2.0000      -0.447115       -12.1666
  36   2.0000      -0.447071       -12.1654
  37   0.0000       0.183414         4.9909
  38   0.0000       0.201160         5.4739
  39   0.0000       0.201315         5.4781
  40   0.0000       0.237561         6.4644
  41   0.0000       0.253107         6.8874

MULLIKEN ATOMIC CHARGES
-----------------------
   0 C :    0.167777
   1 O :   -0.589871
   2 P :    1.434527
   3 O :   -0.590101
   4 C :    0.167879
   5 O :   -0.662150
   6 O :   -0.589970
   7 C :    0.167794
   8 H :    0.056086
   9 H :    0.048546
  10 H :    0.060192
  11 H :    0.056044
  12 H :    0.048425
  13 H :    0.060149
  14 H :    0.056016
  15 H :    0.048464
  16 H :    0.060193
Sum of atomic charges:    0.0000000

LOEWDIN ATOMIC CHARGES
----------------------
   0 C :    0.043197
   1 O :   -0.203996
   2 P :    0.761246
   3 O :   -0.204137
   4 C :    0.043224
   5 O :   -0.495662
   6 O :   -0.204119
   7 C :    0.043122
   8 H :    0.028007
   9 H :    0.020452
  10 H :    0.023956
  11 H :    0.027988
  12 H :    0.020401
  13 H :    0.023940
  14 H :    0.027985
  15 H :    0.020436
  16 H :    0.023958

  Mayer bond orders larger than 0.100000
B(  0-C ,  1-O ) :   0.8811 B(  0-C ,  8-H ) :   0.9925 B(  0-C ,  9-H ) :   0.9864
B(  0-C , 10-H ) :   0.9842 B(  1-O ,  2-P ) :   1.0638 B(  2-P ,  3-O ) :   1.0633
B(  2-P ,  5-O ) :   1.8344 B(  2-P ,  6-O ) :   1.0633 B(  3-O ,  4-C ) :   0.8812
B(  4-C , 14-H ) :   0.9925 B(  4-C , 15-H ) :   0.9864 B(  4-C , 16-H ) :   0.9843
B(  6-O ,  7-C ) :   0.8813 B(  7-C , 11-H ) :   0.9925 B(  7-C , 12-H ) :   0.9864
B(  7-C , 13-H ) :   0.9843

E(0)                                       ...   -759.111356257
E(0)                                       ...   -759.111356257
E(CORR)(strong-pairs)                      ...     -1.336745248
E(CORR)(weak-pairs)                        ...     -0.000638858
E(CORR)(corrected)                         ...     -1.337384107
E(TOT)                                     ...   -760.448740364
E(CCSD(T))                                 ...   -760.483182255
FINAL SINGLE POINT ENERGY      -760.483182254613

DIPOLE MOMENT
-------------
                                X             Y             Z
Electronic contribution:      0.01262      -0.00902      -0.72496
Nuclear contribution   :     -0.01368       0.00979       0.45297
                        -----------------------------------------
Total Dipole Moment    :     -0.00106       0.00077      -0.27198
                        -----------------------------------------
Magnitude (a.u.)       :      0.27199
Magnitude (Debye)      :      0.69133

Rotational constants in cm-1:     0.060413     0.060267     0.038875
Rotational constants in MHz :  1811.131413  1806.753991  1165.442779

                             ****ORCA TERMINATED NORMALLY****
TOTAL RUN TIME: 0 days 0 hours 2 minutes 26 seconds 356 msec
