                         Program Version 4.2.1 -  RELEASE  -
|  1> ! RHF DLPNO-CCSD(T) cc-pVDZ RIJK cc-pVTZ/JK cc-pVDZ/C
|  2> ! KDIIS SOSCF TightSCF TightPNO
|  3>
|  4> %pal nprocs 10 end
|  5>
|  6> %maxcore 8000
|  7>
|  8> %scf maxiter 300
|  9>      shift shift 0.2 erroff 0.1 end
| 10> end
| 11>
| 12> * xyzfile 0 1 trimethylphosphate_C1.xyz
| 13>
| 14>
| 15>                          ****END OF INPUT****

CARTESIAN COORDINATES (ANGSTROEM)
---------------------------------
  C      1.351470    2.047130   -0.475150
  O      0.991730    1.160210    0.604400
  P     -0.055690   -0.035570    0.409170
  O      0.493870   -0.931700   -0.825790
  C      1.354170   -2.059540   -0.554550
  O     -0.320470   -0.794550    1.651020
  O     -1.287610    0.723700   -0.290910
  C     -2.506120    0.003600   -0.571770
  H      2.131880    2.697940   -0.079690
  H      1.734980    1.479340   -1.327820
  H      0.485700    2.640320   -0.779480
  H     -3.214250    0.743610   -0.945710
  H     -2.326360   -0.758820   -1.335290
  H     -2.893420   -0.457840    0.340320
  H      1.412060   -2.626280   -1.484750
  H      2.353620   -1.716690   -0.268920
  H      0.933800   -2.676560    0.242850

 Total Charge           Charge          ....    0
 Multiplicity           Mult            ....    1
 Number of Electrons    NEL             ....   74
 Basis Dimension        Dim             ....  161

ORBITAL ENERGIES
----------------

  NO   OCC          E(Eh)            E(eV)
   0   2.0000     -80.123436     -2180.2695
   1   2.0000     -20.591185      -560.3146
   2   2.0000     -20.590325      -560.2912
   3   2.0000     -20.588961      -560.2541
   4   2.0000     -20.503603      -557.9314
   5   2.0000     -11.302399      -307.5539
   6   2.0000     -11.301255      -307.5228
   7   2.0000     -11.300360      -307.4984
   8   2.0000      -7.641595      -207.9384
   9   2.0000      -5.539546      -150.7387
  10   2.0000      -5.539350      -150.7334
  11   2.0000      -5.539045      -150.7251
  12   2.0000      -1.446273       -39.3551
  13   2.0000      -1.376428       -37.4545
  14   2.0000      -1.375843       -37.4386
  15   2.0000      -1.286321       -35.0026
  16   2.0000      -0.982144       -26.7255
  17   2.0000      -0.951508       -25.8919
  18   2.0000      -0.945972       -25.7412
  19   2.0000      -0.783407       -21.3176
  20   2.0000      -0.709947       -19.3186
  21   2.0000      -0.708445       -19.2778
  22   2.0000      -0.668583       -18.1931
  23   2.0000      -0.655818       -17.8457
  24   2.0000      -0.645708       -17.5706
  25   2.0000      -0.626812       -17.0564
  26   2.0000      -0.615146       -16.7390
  27   2.0000      -0.611611       -16.6428
  28   2.0000      -0.576344       -15.6831
  29   2.0000      -0.535319       -14.5668
  30   2.0000      -0.519476       -14.1357
  31   2.0000      -0.509223       -13.8567
  32   2.0000      -0.489818       -13.3286
  33   2.0000      -0.486485       -13.2379
  34   2.0000      -0.472693       -12.8626
  35   2.0000      -0.451334       -12.2814
  36   2.0000      -0.445859       -12.1324
  37   0.0000       0.176602         4.8056
  38   0.0000       0.197329         5.3696
  39   0.0000       0.201185         5.4745
  40   0.0000       0.239238         6.5100
  41   0.0000       0.241571         6.5735

MULLIKEN ATOMIC CHARGES
-----------------------
   0 C :    0.167554
   1 O :   -0.583360
   2 P :    1.453403
   3 O :   -0.629331
   4 C :    0.167278
   5 O :   -0.628855
   6 O :   -0.607251
   7 C :    0.167879
   8 H :    0.057540
   9 H :    0.045520
  10 H :    0.057280
  11 H :    0.057263
  12 H :    0.049331
  13 H :    0.062050
  14 H :    0.052857
  15 H :    0.044285
  16 H :    0.066559
Sum of atomic charges:   -0.0000000

LOEWDIN ATOMIC CHARGES
----------------------
   0 C :    0.042989
   1 O :   -0.197186
   2 P :    0.763170
   3 O :   -0.225699
   4 C :    0.041351
   5 O :   -0.474631
   6 O :   -0.207868
   7 C :    0.043853
   8 H :    0.028947
   9 H :    0.017853
  10 H :    0.022369
  11 H :    0.028587
  12 H :    0.019802
  13 H :    0.025683
  14 H :    0.025989
  15 H :    0.018942
  16 H :    0.025849

  Mayer bond orders larger than 0.100000
B(  0-C ,  1-O ) :   0.8865 B(  0-C ,  8-H ) :   0.9911 B(  0-C ,  9-H ) :   0.9847
B(  0-C , 10-H ) :   0.9854 B(  1-O ,  2-P ) :   1.0634 B(  2-P ,  3-O ) :   0.9937
B(  2-P ,  5-O ) :   1.8990 B(  2-P ,  6-O ) :   1.0392 B(  3-O ,  4-C ) :   0.8836
B(  4-C , 14-H ) :   0.9918 B(  4-C , 15-H ) :   0.9871 B(  4-C , 16-H ) :   0.9847
B(  6-O ,  7-C ) :   0.8807 B(  7-C , 11-H ) :   0.9925 B(  7-C , 12-H ) :   0.9857
B(  7-C , 13-H ) :   0.9845

E(0)                                       ...   -759.110278549
E(0)                                       ...   -759.110278549
E(CORR)(strong-pairs)                      ...     -1.337499926
E(CORR)(weak-pairs)                        ...     -0.000632003
E(CORR)(corrected)                         ...     -1.338131928
E(TOT)                                     ...   -760.448410478
E(CCSD(T))                                 ...   -760.482929932
FINAL SINGLE POINT ENERGY      -760.482929932356

DIPOLE MOMENT
-------------
                                X             Y             Z
Electronic contribution:     -0.50179       0.72990       4.40743
Nuclear contribution   :      0.66388      -0.63360      -5.96313
                        -----------------------------------------
Total Dipole Moment    :      0.16209       0.09630      -1.55570
                        -----------------------------------------
Magnitude (a.u.)       :      1.56708
Magnitude (Debye)      :      3.98321

Rotational constants in cm-1:     0.061337     0.057637     0.042332
Rotational constants in MHz :  1838.850706  1727.904730  1269.094030

                             ****ORCA TERMINATED NORMALLY****
TOTAL RUN TIME: 0 days 0 hours 2 minutes 23 seconds 701 msec
