                         Program Version 4.1.x  -  STABLE  -
|  1> ! RHF DLPNO-CCSD(T) cc-pVDZ RIJK cc-pVTZ/JK cc-pVDZ/C
|  2> ! KDIIS SOSCF TightSCF TightPNO
|  3>
|  4> %pal nprocs 8 end
|  5>
|  6> %maxcore 8000
|  7>
|  8> %scf maxiter 300
|  9>      shift shift 0.2 erroff 0.1 end
| 10> end
| 11>
| 12> * xyzfile 0 1 trineopentylbenzene-tribr-allsyn.xyz
| 13>
| 14>
| 15>                          ****END OF INPUT****

CARTESIAN COORDINATES (ANGSTROEM)
---------------------------------
  C     -1.372370    0.076890   -0.611230
  C     -0.648780    1.285440   -0.577460
  C      0.751050    1.148490   -0.609970
  C     -0.790290   -1.203450   -0.577990
  C      0.618290   -1.226050   -0.611150
  C      1.436660   -0.082320   -0.577410
  C      2.951240   -0.161120   -0.530590
  C      3.632850   -0.204800    0.887830
  C      5.152560   -0.103750    0.640570
  C      3.199240    0.970110    1.786400
  C      3.343690   -1.523130    1.632430
  C     -1.337720    2.635980   -0.529180
  C     -1.636910    3.246020    0.890980
  C     -2.491350    4.507800    0.648800
  C     -2.426370    2.277170    1.793030
  C     -0.349510    3.661210    1.630260
  C     -1.615550   -2.475360   -0.528330
  C     -1.992410   -3.040190    0.892730
  C     -2.647350   -4.415790    0.650860
  C     -0.759620   -3.229460    1.798440
  C     -3.003600   -2.138410    1.627420
  Br     1.480180   -2.931570   -0.875270
  Br    -3.280030    0.182120   -0.877950
  Br     1.795970    2.747960   -0.874970
  H      3.277420   -1.046580   -1.080430
  H      3.356490    0.700780   -1.063490
  H      5.701640   -0.142000    1.588420
  H      5.510440   -0.928440    0.013090
  H      5.410550    0.837680    0.141680
  H      3.686720    0.884580    2.764610
  H      3.477110    1.936210    1.357990
  H      2.117510    0.975220    1.956740
  H      3.833670   -1.507050    2.613060
  H      2.273390   -1.677600    1.799580
  H      3.723420   -2.388760    1.082570
  H     -0.735200    3.361050   -1.080070
  H     -2.288470    2.556100   -1.058560
  H     -2.727940    5.002600    1.597710
  H     -1.961900    5.231350    0.017740
  H     -3.437440    4.257050    0.155310
  H     -2.589920    2.738150    2.773930
  H     -3.404000    2.029450    1.373030
  H     -1.883620    1.339910    1.955770
  H     -0.606600    4.076230    2.612000
  H      0.324360    2.815110    1.794600
  H      0.204150    4.426310    1.078530
  H     -2.545810   -2.315970   -1.077760
  H     -1.072440   -3.258710   -1.059310
  H     -2.955890   -4.869240    1.599730
  H     -3.538120   -4.326730    0.017800
  H     -1.950250   -5.104880    0.159950
  H     -1.076330   -3.605930    2.777990
  H     -0.048860   -3.945690    1.379190
  H     -0.229610   -2.285540    1.963260
  H     -3.237950   -2.569310    2.608040
  H     -2.612740   -1.130320    1.794170
  H     -3.940480   -2.044910    1.070740

 Total Charge           Charge          ....    0
 Multiplicity           Mult            ....    1
 Number of Electrons    NEL             ....  264
 Basis Dimension        Dim             ....  540

ORBITAL ENERGIES
----------------

  NO   OCC          E(Eh)            E(eV)
   0   2.0000    -490.074000    -13335.5915
   1   2.0000    -490.073997    -13335.5914
   2   2.0000    -490.073876    -13335.5881
   3   2.0000     -65.210313     -1774.4628
   4   2.0000     -65.210310     -1774.4628
   5   2.0000     -65.210194     -1774.4596
   6   2.0000     -58.567222     -1593.6951
   7   2.0000     -58.567219     -1593.6951
   8   2.0000     -58.567103     -1593.6919
   9   2.0000     -58.565880     -1593.6586
  10   2.0000     -58.565878     -1593.6586
  11   2.0000     -58.565794     -1593.6563
  12   2.0000     -58.565791     -1593.6562
  13   2.0000     -58.565761     -1593.6554
  14   2.0000     -58.565675     -1593.6530
  15   2.0000     -11.315879      -307.9207
  16   2.0000     -11.315858      -307.9201
  17   2.0000     -11.315845      -307.9198
  18   2.0000     -11.284876      -307.0771
  19   2.0000     -11.284801      -307.0750
  20   2.0000     -11.284762      -307.0740
  21   2.0000     -11.246542      -306.0340
  22   2.0000     -11.246535      -306.0338
  23   2.0000     -11.246505      -306.0330
  24   2.0000     -11.238716      -305.8210
  25   2.0000     -11.238618      -305.8183
  26   2.0000     -11.238601      -305.8179
  27   2.0000     -11.221167      -305.3435
  28   2.0000     -11.221162      -305.3433
  29   2.0000     -11.221112      -305.3420
  30   2.0000     -11.216252      -305.2097
  31   2.0000     -11.216223      -305.2089
  32   2.0000     -11.216222      -305.2089
  33   2.0000     -11.216026      -305.2036
  34   2.0000     -11.216013      -305.2032
  35   2.0000     -11.216002      -305.2029
  36   2.0000      -9.859275      -268.2845
  37   2.0000      -9.859272      -268.2844
  38   2.0000      -9.859164      -268.2815
  39   2.0000      -7.472350      -203.3330
  40   2.0000      -7.472346      -203.3329
  41   2.0000      -7.472239      -203.3300
  42   2.0000      -7.463644      -203.0961
  43   2.0000      -7.463642      -203.0960
  44   2.0000      -7.463608      -203.0951
  45   2.0000      -7.463606      -203.0951
  46   2.0000      -7.463534      -203.0931
  47   2.0000      -7.463499      -203.0921
  48   2.0000      -3.209542       -87.3361
  49   2.0000      -3.209537       -87.3359
  50   2.0000      -3.209431       -87.3331
  51   2.0000      -3.205118       -87.2157
  52   2.0000      -3.205111       -87.2155
  53   2.0000      -3.205067       -87.2143
  54   2.0000      -3.205062       -87.2142
  55   2.0000      -3.205005       -87.2126
  56   2.0000      -3.204956       -87.2113
  57   2.0000      -3.194678       -86.9316
  58   2.0000      -3.194676       -86.9316
  59   2.0000      -3.194640       -86.9306
  60   2.0000      -3.194639       -86.9305
  61   2.0000      -3.194568       -86.9286
  62   2.0000      -3.194531       -86.9276
  63   2.0000      -1.209083       -32.9008
  64   2.0000      -1.128561       -30.7097
  65   2.0000      -1.128494       -30.7079
  66   2.0000      -1.101049       -29.9611
  67   2.0000      -1.085845       -29.5473
  68   2.0000      -1.085806       -29.5463
  69   2.0000      -1.011472       -27.5236
  70   2.0000      -1.011454       -27.5231
  71   2.0000      -1.011210       -27.5164
  72   2.0000      -0.951359       -25.8878
  73   2.0000      -0.932120       -25.3643
  74   2.0000      -0.932034       -25.3619
  75   2.0000      -0.929896       -25.3037
  76   2.0000      -0.927957       -25.2510
  77   2.0000      -0.927904       -25.2496
  78   2.0000      -0.927454       -25.2373
  79   2.0000      -0.910417       -24.7737
  80   2.0000      -0.910270       -24.7697
  81   2.0000      -0.798155       -21.7189
  82   2.0000      -0.798084       -21.7170
  83   2.0000      -0.743711       -20.2374
  84   2.0000      -0.727333       -19.7917
  85   2.0000      -0.727277       -19.7902
  86   2.0000      -0.707306       -19.2468
  87   2.0000      -0.650486       -17.7006
  88   2.0000      -0.633540       -17.2395
  89   2.0000      -0.621531       -16.9127
  90   2.0000      -0.621492       -16.9116
  91   2.0000      -0.616241       -16.7688
  92   2.0000      -0.616186       -16.7673
  93   2.0000      -0.604665       -16.4538
  94   2.0000      -0.604595       -16.4519
  95   2.0000      -0.603369       -16.4185
  96   2.0000      -0.586484       -15.9590
  97   2.0000      -0.575561       -15.6618
  98   2.0000      -0.562914       -15.3177
  99   2.0000      -0.562891       -15.3170
 100   2.0000      -0.553880       -15.0718
 101   2.0000      -0.553792       -15.0695
 102   2.0000      -0.543961       -14.8019
 103   2.0000      -0.539384       -14.6774
 104   2.0000      -0.527709       -14.3597
 105   2.0000      -0.525798       -14.3077
 106   2.0000      -0.525736       -14.3060
 107   2.0000      -0.521018       -14.1776
 108   2.0000      -0.520936       -14.1754
 109   2.0000      -0.511998       -13.9322
 110   2.0000      -0.511924       -13.9302
 111   2.0000      -0.510879       -13.9017
 112   2.0000      -0.508782       -13.8447
 113   2.0000      -0.498468       -13.5640
 114   2.0000      -0.498428       -13.5629
 115   2.0000      -0.470470       -12.8021
 116   2.0000      -0.470385       -12.7998
 117   2.0000      -0.463317       -12.6075
 118   2.0000      -0.461667       -12.5626
 119   2.0000      -0.460721       -12.5369
 120   2.0000      -0.460672       -12.5355
 121   2.0000      -0.453827       -12.3492
 122   2.0000      -0.448219       -12.1967
 123   2.0000      -0.448151       -12.1948
 124   2.0000      -0.446723       -12.1559
 125   2.0000      -0.446695       -12.1552
 126   2.0000      -0.412377       -11.2214
 127   2.0000      -0.412319       -11.2198
 128   2.0000      -0.404184       -10.9984
 129   2.0000      -0.394851       -10.7445
 130   2.0000      -0.328454        -8.9377
 131   2.0000      -0.328316        -8.9339
 132   0.0000       0.097459         2.6520
 133   0.0000       0.097471         2.6523
 134   0.0000       0.114060         3.1037
 135   0.0000       0.164511         4.4766
 136   0.0000       0.182614         4.9692

MULLIKEN ATOMIC CHARGES
-----------------------
   0 C :   -0.243031
   1 C :    0.063370
   2 C :   -0.243108
   3 C :    0.063296
   4 C :   -0.242080
   5 C :    0.063889
   6 C :    0.148072
   7 C :   -0.493872
   8 C :    0.053440
   9 C :    0.052123
  10 C :    0.058608
  11 C :    0.149124
  12 C :   -0.494117
  13 C :    0.053638
  14 C :    0.052195
  15 C :    0.058369
  16 C :    0.148699
  17 C :   -0.493931
  18 C :    0.053593
  19 C :    0.051960
  20 C :    0.058581
  21 Br:   -0.052376
  22 Br:   -0.052191
  23 Br:   -0.052388
  24 H :    0.060210
  25 H :    0.060766
  26 H :    0.029290
  27 H :    0.026757
  28 H :    0.028317
  29 H :    0.028147
  30 H :    0.039467
  31 H :    0.038596
  32 H :    0.026812
  33 H :    0.041816
  34 H :    0.032519
  35 H :    0.060192
  36 H :    0.060727
  37 H :    0.029287
  38 H :    0.026688
  39 H :    0.028422
  40 H :    0.028151
  41 H :    0.039396
  42 H :    0.038637
  43 H :    0.026835
  44 H :    0.041919
  45 H :    0.032448
  46 H :    0.060265
  47 H :    0.060665
  48 H :    0.029226
  49 H :    0.026673
  50 H :    0.028486
  51 H :    0.028233
  52 H :    0.039759
  53 H :    0.038592
  54 H :    0.026801
  55 H :    0.041747
  56 H :    0.032294
Sum of atomic charges:   -0.0000000

LOEWDIN ATOMIC CHARGES
----------------------
   0 C :   -0.121292
   1 C :   -0.033778
   2 C :   -0.121369
   3 C :   -0.033812
   4 C :   -0.121173
   5 C :   -0.033785
   6 C :   -0.020394
   7 C :   -0.057734
   8 C :   -0.033124
   9 C :   -0.041597
  10 C :   -0.040732
  11 C :   -0.020310
  12 C :   -0.057677
  13 C :   -0.033124
  14 C :   -0.041618
  15 C :   -0.040746
  16 C :   -0.020329
  17 C :   -0.057667
  18 C :   -0.033178
  19 C :   -0.041615
  20 C :   -0.040710
  21 Br:    0.145280
  22 Br:    0.145311
  23 Br:    0.145537
  24 H :    0.020352
  25 H :    0.019175
  26 H :    0.021175
  27 H :    0.019549
  28 H :    0.019801
  29 H :    0.020759
  30 H :    0.014120
  31 H :    0.016557
  32 H :    0.019979
  33 H :    0.016530
  34 H :    0.015374
  35 H :    0.020297
  36 H :    0.019073
  37 H :    0.021161
  38 H :    0.019603
  39 H :    0.019775
  40 H :    0.020762
  41 H :    0.014095
  42 H :    0.016627
  43 H :    0.019967
  44 H :    0.016356
  45 H :    0.015417
  46 H :    0.020311
  47 H :    0.019055
  48 H :    0.021112
  49 H :    0.019595
  50 H :    0.019816
  51 H :    0.020805
  52 H :    0.014022
  53 H :    0.016610
  54 H :    0.019965
  55 H :    0.016398
  56 H :    0.015444

  Mayer bond orders larger than 0.1
B(  0-C ,  1-C ) :   1.3596 B(  0-C ,  3-C ) :   1.3718 B(  0-C , 22-Br) :   1.0828
B(  1-C ,  2-C ) :   1.3717 B(  1-C , 11-C ) :   1.0806 B(  2-C ,  5-C ) :   1.3596
B(  2-C , 23-Br) :   1.0829 B(  3-C ,  4-C ) :   1.3596 B(  3-C , 16-C ) :   1.0806
B(  4-C ,  5-C ) :   1.3719 B(  4-C , 21-Br) :   1.0825 B(  5-C ,  6-C ) :   1.0803
B(  6-C ,  7-C ) :   0.9932 B(  6-C , 24-H ) :   0.9342 B(  6-C , 25-H ) :   0.9352
B(  7-C ,  8-C ) :   1.0396 B(  7-C ,  9-C ) :   1.0295 B(  7-C , 10-C ) :   1.0284
B(  8-C , 26-H ) :   0.9784 B(  8-C , 27-H ) :   0.9764 B(  8-C , 28-H ) :   0.9761
B(  9-C , 29-H ) :   0.9771 B(  9-C , 30-H ) :   0.9751 B(  9-C , 31-H ) :   0.9732
B( 10-C , 32-H ) :   0.9774 B( 10-C , 33-H ) :   0.9740 B( 10-C , 34-H ) :   0.9760
B( 11-C , 12-C ) :   0.9930 B( 11-C , 35-H ) :   0.9340 B( 11-C , 36-H ) :   0.9352
B( 12-C , 13-C ) :   1.0397 B( 12-C , 14-C ) :   1.0295 B( 12-C , 15-C ) :   1.0285
B( 13-C , 37-H ) :   0.9784 B( 13-C , 38-H ) :   0.9764 B( 13-C , 39-H ) :   0.9761
B( 14-C , 40-H ) :   0.9771 B( 14-C , 41-H ) :   0.9751 B( 14-C , 42-H ) :   0.9731
B( 15-C , 43-H ) :   0.9774 B( 15-C , 44-H ) :   0.9740 B( 15-C , 45-H ) :   0.9760
B( 16-C , 17-C ) :   0.9927 B( 16-C , 46-H ) :   0.9341 B( 16-C , 47-H ) :   0.9354
B( 17-C , 18-C ) :   1.0396 B( 17-C , 19-C ) :   1.0297 B( 17-C , 20-C ) :   1.0285
B( 18-C , 48-H ) :   0.9784 B( 18-C , 49-H ) :   0.9764 B( 18-C , 50-H ) :   0.9761
B( 19-C , 51-H ) :   0.9771 B( 19-C , 52-H ) :   0.9751 B( 19-C , 53-H ) :   0.9731
B( 20-C , 54-H ) :   0.9774 B( 20-C , 55-H ) :   0.9740 B( 20-C , 56-H ) :   0.9760

E(0)                                       ...  -8531.626967346
E(0)                                       ...  -8531.626967346
E(CORR)(strong-pairs)                      ...     -3.595305387
E(CORR)(weak-pairs)                        ...     -0.007876799
E(CORR)(corrected)                         ...     -3.603182187
E(TOT)                                     ...  -8535.230149533
E(CCSD(T))                                 ...  -8535.358102140
FINAL SINGLE POINT ENERGY     -8535.358102140235

DIPOLE MOMENT
-------------
                                X             Y             Z
Electronic contribution:     -0.08570      -0.03257     -55.94174
Nuclear contribution   :      0.08657       0.03292      56.30178
                        -----------------------------------------
Total Dipole Moment    :      0.00087       0.00035       0.36004
                        -----------------------------------------
Magnitude (a.u.)       :      0.36004
Magnitude (Debye)      :      0.91515

Rotational constants in cm-1:     0.004768     0.004766     0.002829
Rotational constants in MHz :   142.941085   142.868836    84.813332

                             ****ORCA TERMINATED NORMALLY****
TOTAL RUN TIME: 0 days 1 hours 14 minutes 22 seconds 193 msec
