                         Program Version 4.1.x  -  STABLE  -
|  1> ! RHF DLPNO-CCSD(T) cc-pVDZ RIJK cc-pVTZ/JK cc-pVDZ/C
|  2> ! KDIIS SOSCF TightSCF TightPNO
|  3>
|  4> %pal nprocs 8 end
|  5>
|  6> %maxcore 8000
|  7>
|  8> %scf maxiter 300
|  9>      shift shift 0.2 erroff 0.1 end
| 10> end
| 11>
| 12> * xyzfile 0 1 trineopentylbenzene-tribr-twsyn.xyz
| 13>
| 14>
| 15>                          ****END OF INPUT****

CARTESIAN COORDINATES (ANGSTROEM)
---------------------------------
  C     -0.753610   -1.188720   -0.118290
  C      0.576360   -1.244380    0.341800
  C      1.151620    0.000080    0.661350
  C     -1.493860   -0.000110   -0.267560
  C     -0.753780    1.188610   -0.118300
  C      0.576190    1.244460    0.341760
  C      1.314660    2.557990    0.522040
  C      2.232460    3.063530   -0.653180
  C      2.618980    4.515780   -0.302910
  C      3.522740    2.230200   -0.778240
  C      1.515660    3.054450   -2.017740
  C      1.314990   -2.557830    0.522090
  C      2.232860   -3.063310   -0.653100
  C      1.516110   -3.054260   -2.017690
  C      3.523100   -2.229910   -0.778150
  C      2.619470   -4.515530   -0.302820
  C     -2.983670   -0.000210   -0.555790
  C     -3.961970   -0.000220    0.679090
  C     -3.794750   -1.248540    1.568150
  C     -3.794690    1.248050    1.568210
  C     -5.390020   -0.000180    0.094120
  Br    -1.628190    2.847930   -0.548100
  Br    -1.627780   -2.848150   -0.548140
  Br     2.770350    0.000230    1.708280
  H      0.576380    3.336810    0.720310
  H      1.938140    2.486910    1.416830
  H      3.281660    4.934970   -1.068640
  H      1.731480    5.156080   -0.240030
  H      3.143520    4.568650    0.658590
  H      4.146130    2.635050   -1.584140
  H      4.110250    2.251430    0.144260
  H      3.312860    1.183890   -1.017690
  H      2.211510    3.376150   -2.801220
  H      1.158870    2.053670   -2.283930
  H      0.658910    3.731600   -2.034040
  H      1.938430   -2.486670    1.416900
  H      0.576790   -3.336720    0.720370
  H      2.212010   -3.375900   -2.801150
  H      0.659400   -3.731450   -2.034040
  H      1.159280   -2.053490   -2.283880
  H      4.146510   -2.634720   -1.584040
  H      3.313170   -1.183600   -1.017600
  H      4.110610   -2.251110    0.144350
  H      3.282190   -4.934670   -1.068540
  H      3.144000   -4.568350    0.658680
  H      1.732010   -5.155890   -0.239960
  H     -3.224830    0.874320   -1.163390
  H     -3.224710   -0.874820   -1.163330
  H     -4.497340   -1.195950    2.407960
  H     -3.998890   -2.170830    1.018850
  H     -2.785830   -1.321670    1.987390
  H     -4.497400    1.195530    2.407920
  H     -2.785820    1.321010    1.987580
  H     -3.998620    2.170400    1.018920
  H     -6.135550   -0.000170    0.897430
  H     -5.565690    0.886910   -0.525650
  H     -5.565710   -0.887280   -0.525630

 Total Charge           Charge          ....    0
 Multiplicity           Mult            ....    1
 Number of Electrons    NEL             ....  264
 Basis Dimension        Dim             ....  540

ORBITAL ENERGIES
----------------

  NO   OCC          E(Eh)            E(eV)
   0   2.0000    -490.074349    -13335.6010
   1   2.0000    -490.074349    -13335.6010
   2   2.0000    -490.073361    -13335.5741
   3   2.0000     -65.210698     -1774.4733
   4   2.0000     -65.210698     -1774.4733
   5   2.0000     -65.209662     -1774.4451
   6   2.0000     -58.567598     -1593.7054
   7   2.0000     -58.567597     -1593.7053
   8   2.0000     -58.566578     -1593.6776
   9   2.0000     -58.566274     -1593.6693
  10   2.0000     -58.566273     -1593.6693
  11   2.0000     -58.566172     -1593.6666
  12   2.0000     -58.566171     -1593.6665
  13   2.0000     -58.565224     -1593.6408
  14   2.0000     -58.565145     -1593.6386
  15   2.0000     -11.315333      -307.9059
  16   2.0000     -11.315174      -307.9015
  17   2.0000     -11.315158      -307.9011
  18   2.0000     -11.284671      -307.0715
  19   2.0000     -11.284642      -307.0707
  20   2.0000     -11.284500      -307.0669
  21   2.0000     -11.245985      -306.0188
  22   2.0000     -11.245984      -306.0188
  23   2.0000     -11.245893      -306.0163
  24   2.0000     -11.239146      -305.8327
  25   2.0000     -11.239144      -305.8326
  26   2.0000     -11.239092      -305.8312
  27   2.0000     -11.220762      -305.3324
  28   2.0000     -11.220761      -305.3324
  29   2.0000     -11.220631      -305.3289
  30   2.0000     -11.215768      -305.1966
  31   2.0000     -11.215765      -305.1965
  32   2.0000     -11.214677      -305.1669
  33   2.0000     -11.214677      -305.1669
  34   2.0000     -11.214497      -305.1620
  35   2.0000     -11.214478      -305.1615
  36   2.0000      -9.859725      -268.2968
  37   2.0000      -9.859725      -268.2968
  38   2.0000      -9.858615      -268.2665
  39   2.0000      -7.472795      -203.3451
  40   2.0000      -7.472795      -203.3451
  41   2.0000      -7.471717      -203.3158
  42   2.0000      -7.464192      -203.1110
  43   2.0000      -7.464191      -203.1110
  44   2.0000      -7.463986      -203.1054
  45   2.0000      -7.463986      -203.1054
  46   2.0000      -7.462965      -203.0776
  47   2.0000      -7.462930      -203.0766
  48   2.0000      -3.209997       -87.3485
  49   2.0000      -3.209996       -87.3484
  50   2.0000      -3.208911       -87.3189
  51   2.0000      -3.205673       -87.2308
  52   2.0000      -3.205671       -87.2308
  53   2.0000      -3.205397       -87.2233
  54   2.0000      -3.205393       -87.2232
  55   2.0000      -3.204479       -87.1983
  56   2.0000      -3.204417       -87.1966
  57   2.0000      -3.195156       -86.9446
  58   2.0000      -3.195155       -86.9446
  59   2.0000      -3.195106       -86.9433
  60   2.0000      -3.195106       -86.9433
  61   2.0000      -3.193978       -86.9126
  62   2.0000      -3.193945       -86.9117
  63   2.0000      -1.209117       -32.9017
  64   2.0000      -1.128164       -30.6989
  65   2.0000      -1.127749       -30.6876
  66   2.0000      -1.100350       -29.9420
  67   2.0000      -1.086249       -29.5583
  68   2.0000      -1.085372       -29.5345
  69   2.0000      -1.012085       -27.5402
  70   2.0000      -1.011602       -27.5271
  71   2.0000      -1.011274       -27.5182
  72   2.0000      -0.951101       -25.8808
  73   2.0000      -0.931719       -25.3534
  74   2.0000      -0.931537       -25.3484
  75   2.0000      -0.929058       -25.2809
  76   2.0000      -0.926995       -25.2248
  77   2.0000      -0.926890       -25.2220
  78   2.0000      -0.925556       -25.1856
  79   2.0000      -0.909929       -24.7604
  80   2.0000      -0.909836       -24.7579
  81   2.0000      -0.798111       -21.7177
  82   2.0000      -0.797372       -21.6976
  83   2.0000      -0.742680       -20.2093
  84   2.0000      -0.727057       -19.7842
  85   2.0000      -0.726676       -19.7739
  86   2.0000      -0.706525       -19.2255
  87   2.0000      -0.649510       -17.6741
  88   2.0000      -0.631751       -17.1908
  89   2.0000      -0.619838       -16.8667
  90   2.0000      -0.619433       -16.8556
  91   2.0000      -0.618029       -16.8174
  92   2.0000      -0.615883       -16.7590
  93   2.0000      -0.605565       -16.4783
  94   2.0000      -0.603256       -16.4154
  95   2.0000      -0.602572       -16.3968
  96   2.0000      -0.585409       -15.9298
  97   2.0000      -0.573478       -15.6051
  98   2.0000      -0.565940       -15.4000
  99   2.0000      -0.560922       -15.2635
 100   2.0000      -0.555820       -15.1246
 101   2.0000      -0.554257       -15.0821
 102   2.0000      -0.543906       -14.8004
 103   2.0000      -0.541780       -14.7426
 104   2.0000      -0.526383       -14.3236
 105   2.0000      -0.523917       -14.2565
 106   2.0000      -0.522774       -14.2254
 107   2.0000      -0.521717       -14.1966
 108   2.0000      -0.518588       -14.1115
 109   2.0000      -0.513236       -13.9659
 110   2.0000      -0.511878       -13.9289
 111   2.0000      -0.509816       -13.8728
 112   2.0000      -0.508207       -13.8290
 113   2.0000      -0.493972       -13.4417
 114   2.0000      -0.491478       -13.3738
 115   2.0000      -0.474201       -12.9037
 116   2.0000      -0.474117       -12.9014
 117   2.0000      -0.463552       -12.6139
 118   2.0000      -0.462465       -12.5843
 119   2.0000      -0.459605       -12.5065
 120   2.0000      -0.458195       -12.4681
 121   2.0000      -0.455017       -12.3816
 122   2.0000      -0.449251       -12.2247
 123   2.0000      -0.447361       -12.1733
 124   2.0000      -0.443902       -12.0792
 125   2.0000      -0.443634       -12.0719
 126   2.0000      -0.413762       -11.2590
 127   2.0000      -0.413612       -11.2550
 128   2.0000      -0.401459       -10.9242
 129   2.0000      -0.395267       -10.7558
 130   2.0000      -0.328937        -8.9508
 131   2.0000      -0.327355        -8.9078
 132   0.0000       0.086910         2.3650
 133   0.0000       0.100041         2.7223
 134   0.0000       0.127205         3.4614
 135   0.0000       0.169861         4.6221
 136   0.0000       0.181843         4.9482

MULLIKEN ATOMIC CHARGES
-----------------------
   0 C :   -0.223326
   1 C :    0.062578
   2 C :   -0.268605
   3 C :    0.054755
   4 C :   -0.223318
   5 C :    0.062587
   6 C :    0.149808
   7 C :   -0.492054
   8 C :    0.052370
   9 C :    0.056930
  10 C :    0.059364
  11 C :    0.149815
  12 C :   -0.492048
  13 C :    0.059360
  14 C :    0.056929
  15 C :    0.052372
  16 C :    0.147870
  17 C :   -0.493950
  18 C :    0.061119
  19 C :    0.061112
  20 C :    0.053808
  21 Br:   -0.055352
  22 Br:   -0.055349
  23 Br:   -0.050725
  24 H :    0.057663
  25 H :    0.060755
  26 H :    0.029152
  27 H :    0.028934
  28 H :    0.026097
  29 H :    0.027180
  30 H :    0.031799
  31 H :    0.041242
  32 H :    0.026916
  33 H :    0.035705
  34 H :    0.040276
  35 H :    0.060750
  36 H :    0.057662
  37 H :    0.026915
  38 H :    0.040276
  39 H :    0.035704
  40 H :    0.027178
  41 H :    0.041243
  42 H :    0.031794
  43 H :    0.029151
  44 H :    0.026097
  45 H :    0.028935
  46 H :    0.058926
  47 H :    0.058928
  48 H :    0.026835
  49 H :    0.036017
  50 H :    0.037975
  51 H :    0.026835
  52 H :    0.037970
  53 H :    0.036033
  54 H :    0.029581
  55 H :    0.026715
  56 H :    0.026712
Sum of atomic charges:    0.0000000

LOEWDIN ATOMIC CHARGES
----------------------
   0 C :   -0.123182
   1 C :   -0.034893
   2 C :   -0.124518
   3 C :   -0.033640
   4 C :   -0.123179
   5 C :   -0.034891
   6 C :   -0.020278
   7 C :   -0.057834
   8 C :   -0.033309
   9 C :   -0.040165
  10 C :   -0.041794
  11 C :   -0.020276
  12 C :   -0.057833
  13 C :   -0.041795
  14 C :   -0.040164
  15 C :   -0.033307
  16 C :   -0.021067
  17 C :   -0.057469
  18 C :   -0.041286
  19 C :   -0.041291
  20 C :   -0.033067
  21 Br:    0.151211
  22 Br:    0.151207
  23 Br:    0.143245
  24 H :    0.019042
  25 H :    0.021816
  26 H :    0.021065
  27 H :    0.019746
  28 H :    0.019423
  29 H :    0.020018
  30 H :    0.015594
  31 H :    0.015212
  32 H :    0.020272
  33 H :    0.018717
  34 H :    0.012557
  35 H :    0.021818
  36 H :    0.019042
  37 H :    0.020272
  38 H :    0.012554
  39 H :    0.018718
  40 H :    0.020017
  41 H :    0.015215
  42 H :    0.015595
  43 H :    0.021066
  44 H :    0.019423
  45 H :    0.019747
  46 H :    0.019850
  47 H :    0.019849
  48 H :    0.020033
  49 H :    0.013097
  50 H :    0.018337
  51 H :    0.020032
  52 H :    0.018336
  53 H :    0.013091
  54 H :    0.021278
  55 H :    0.019373
  56 H :    0.019373

  Mayer bond orders larger than 0.1
B(  0-C ,  1-C ) :   1.3669 B(  0-C ,  3-C ) :   1.3672 B(  0-C , 22-Br) :   1.0780
B(  1-C ,  2-C ) :   1.3599 B(  1-C , 11-C ) :   1.0769 B(  2-C ,  5-C ) :   1.3599
B(  2-C , 23-Br) :   1.0918 B(  3-C ,  4-C ) :   1.3672 B(  3-C , 16-C ) :   1.0840
B(  4-C ,  5-C ) :   1.3669 B(  4-C , 21-Br) :   1.0780 B(  5-C ,  6-C ) :   1.0769
B(  6-C ,  7-C ) :   0.9928 B(  6-C , 24-H ) :   0.9367 B(  6-C , 25-H ) :   0.9337
B(  7-C ,  8-C ) :   1.0392 B(  7-C ,  9-C ) :   1.0296 B(  7-C , 10-C ) :   1.0297
B(  8-C , 26-H ) :   0.9784 B(  8-C , 27-H ) :   0.9760 B(  8-C , 28-H ) :   0.9765
B(  9-C , 29-H ) :   0.9770 B(  9-C , 30-H ) :   0.9753 B(  9-C , 31-H ) :   0.9743
B( 10-C , 32-H ) :   0.9775 B( 10-C , 33-H ) :   0.9749 B( 10-C , 34-H ) :   0.9747
B( 11-C , 12-C ) :   0.9928 B( 11-C , 35-H ) :   0.9337 B( 11-C , 36-H ) :   0.9367
B( 12-C , 13-C ) :   1.0297 B( 12-C , 14-C ) :   1.0296 B( 12-C , 15-C ) :   1.0392
B( 13-C , 37-H ) :   0.9775 B( 13-C , 38-H ) :   0.9747 B( 13-C , 39-H ) :   0.9749
B( 14-C , 40-H ) :   0.9770 B( 14-C , 41-H ) :   0.9743 B( 14-C , 42-H ) :   0.9753
B( 15-C , 43-H ) :   0.9784 B( 15-C , 44-H ) :   0.9765 B( 15-C , 45-H ) :   0.9760
B( 16-C , 17-C ) :   0.9948 B( 16-C , 46-H ) :   0.9336 B( 16-C , 47-H ) :   0.9336
B( 17-C , 18-C ) :   1.0277 B( 17-C , 19-C ) :   1.0277 B( 17-C , 20-C ) :   1.0386
B( 18-C , 48-H ) :   0.9774 B( 18-C , 49-H ) :   0.9755 B( 18-C , 50-H ) :   0.9754
B( 19-C , 51-H ) :   0.9774 B( 19-C , 52-H ) :   0.9754 B( 19-C , 53-H ) :   0.9755
B( 20-C , 54-H ) :   0.9785 B( 20-C , 55-H ) :   0.9764 B( 20-C , 56-H ) :   0.9764

E(0)                                       ...  -8531.625666611
E(0)                                       ...  -8531.625666611
E(CORR)(strong-pairs)                      ...     -3.594446552
E(CORR)(weak-pairs)                        ...     -0.007607191
E(CORR)(corrected)                         ...     -3.602053743
E(TOT)                                     ...  -8535.227720354
E(CCSD(T))                                 ...  -8535.355529976
FINAL SINGLE POINT ENERGY     -8535.355529975965

DIPOLE MOMENT
-------------
                                X             Y             Z
Electronic contribution:    -10.42229       0.00001      13.04907
Nuclear contribution   :     10.45050      -0.00001     -13.11083
                        -----------------------------------------
Total Dipole Moment    :      0.02820      -0.00000      -0.06177
                        -----------------------------------------
Magnitude (a.u.)       :      0.06790
Magnitude (Debye)      :      0.17260

Rotational constants in cm-1:     0.004865     0.004548     0.002785
Rotational constants in MHz :   145.847936   136.339183    83.481135

                             ****ORCA TERMINATED NORMALLY****
TOTAL RUN TIME: 0 days 1 hours 13 minutes 55 seconds 310 msec
