                         Program Version 4.1.x  -  STABLE  -
|  1> ! RHF DLPNO-CCSD(T) cc-pVDZ RIJK cc-pVTZ/JK cc-pVDZ/C
|  2> ! KDIIS SOSCF TightSCF TightPNO
|  3>
|  4> %pal nprocs 4 end
|  5>
|  6> %maxcore 8000
|  7>
|  8> %scf maxiter 300
|  9>      shift shift 0.2 erroff 0.1 end
| 10> end
| 11>
| 12> * xyzfile 0 1 vinyl_alcohol_s_trans.xyz
| 13>
| 14>
| 15>                          ****END OF INPUT****

CARTESIAN COORDINATES (ANGSTROEM)
---------------------------------
  C     -1.229130   -0.180730    0.000000
  C     -0.036420    0.415720   -0.000050
  O      1.135800   -0.296530   -0.000000
  H      1.890100    0.303540    0.000140
  H     -2.129660    0.421000    0.000110
  H     -1.323920   -1.261290    0.000010
  H      0.070310    1.499110    0.000020

 Total Charge           Charge          ....    0
 Multiplicity           Mult            ....    1
 Number of Electrons    NEL             ....   24
 Basis Dimension        Dim             ....   62

ORBITAL ENERGIES
----------------

  NO   OCC          E(Eh)            E(eV)
   0   2.0000     -20.583326      -560.1008
   1   2.0000     -11.299124      -307.4648
   2   2.0000     -11.214980      -305.1751
   3   2.0000      -1.392030       -37.8791
   4   2.0000      -1.019039       -27.7295
   5   2.0000      -0.791045       -21.5254
   6   2.0000      -0.732315       -19.9273
   7   2.0000      -0.614276       -16.7153
   8   2.0000      -0.567058       -15.4304
   9   2.0000      -0.565057       -15.3760
  10   2.0000      -0.512714       -13.9517
  11   2.0000      -0.340186        -9.2569
  12   0.0000       0.172109         4.6833
  13   0.0000       0.192322         5.2333
  14   0.0000       0.228484         6.2174
  15   0.0000       0.241743         6.5782
  16   0.0000       0.275882         7.5071

MULLIKEN ATOMIC CHARGES
-----------------------
   0 C :   -0.113111
   1 C :    0.113981
   2 O :   -0.309682
   3 H :    0.173087
   4 H :    0.048099
   5 H :    0.052866
   6 H :    0.034760
Sum of atomic charges:    0.0000000

LOEWDIN ATOMIC CHARGES
----------------------
   0 C :   -0.116113
   1 C :   -0.000165
   2 O :   -0.010991
   3 H :    0.061845
   4 H :    0.025274
   5 H :    0.025271
   6 H :    0.014878

  Mayer bond orders larger than 0.1
B(  0-C ,  1-C ) :   1.9750 B(  0-C ,  4-H ) :   0.9727 B(  0-C ,  5-H ) :   0.9649
B(  1-C ,  2-O ) :   1.0804 B(  1-C ,  6-H ) :   0.9705 B(  2-O ,  3-H ) :   0.9953

E(0)                                       ...   -152.903816898
E(0)                                       ...   -152.903816898
E(CORR)(strong-pairs)                      ...     -0.486463420
E(CORR)(weak-pairs)                        ...     -0.000060387
E(CORR)(corrected)                         ...     -0.486523807
E(TOT)                                     ...   -153.390340705
E(CCSD(T))                                 ...   -153.404142850
FINAL SINGLE POINT ENERGY      -153.404142849884

DIPOLE MOMENT
-------------
                                X             Y             Z
Electronic contribution:      1.84009      -0.24717      -0.00016
Nuclear contribution   :     -1.50944       0.97987       0.00029
                        -----------------------------------------
Total Dipole Moment    :      0.33065       0.73269       0.00013
                        -----------------------------------------
Magnitude (a.u.)       :      0.80385
Magnitude (Debye)      :      2.04322

Rotational constants in cm-1:     2.121470     0.345831     0.297357
Rotational constants in MHz : 63600.074335 10367.742720  8914.541962

                             ****ORCA TERMINATED NORMALLY****
TOTAL RUN TIME: 0 days 0 hours 0 minutes 10 seconds 600 msec
