                         Program Version 4.1.x  -  STABLE  -
|  1> ! RHF DLPNO-CCSD(T) cc-pVDZ RIJK cc-pVTZ/JK cc-pVDZ/C
|  2> ! KDIIS SOSCF TightSCF TightPNO
|  3>
|  4> %pal nprocs 4 end
|  5>
|  6> %maxcore 8000
|  7>
|  8> %scf maxiter 300
|  9>      shift shift 0.2 erroff 0.1 end
| 10> end
| 11>
| 12> * xyzfile 0 1 vinyl_alcohol_s_cis.xyz
| 13>
| 14>
| 15>                          ****END OF INPUT****

CARTESIAN COORDINATES (ANGSTROEM)
---------------------------------
  C      1.205020   -0.206610   -0.000000
  C      0.036550    0.441800    0.000000
  O     -1.209730   -0.114660   -0.000010
  H     -1.138500   -1.079960    0.000060
  H      2.132500    0.352930    0.000020
  H      1.270000   -1.291860   -0.000020
  H     -0.035520    1.525020    0.000010

 Total Charge           Charge          ....    0
 Multiplicity           Mult            ....    1
 Number of Electrons    NEL             ....   24
 Basis Dimension        Dim             ....   62

ORBITAL ENERGIES
----------------

  NO   OCC          E(Eh)            E(eV)
   0   2.0000     -20.588570      -560.2435
   1   2.0000     -11.303953      -307.5962
   2   2.0000     -11.220943      -305.3374
   3   2.0000      -1.397945       -38.0400
   4   2.0000      -1.019198       -27.7338
   5   2.0000      -0.827356       -22.5135
   6   2.0000      -0.674498       -18.3540
   7   2.0000      -0.663092       -18.0437
   8   2.0000      -0.571883       -15.5617
   9   2.0000      -0.541094       -14.7239
  10   2.0000      -0.536423       -14.5968
  11   2.0000      -0.346037        -9.4161
  12   0.0000       0.185537         5.0487
  13   0.0000       0.191700         5.2164
  14   0.0000       0.212582         5.7846
  15   0.0000       0.241700         6.5770
  16   0.0000       0.272772         7.4225

MULLIKEN ATOMIC CHARGES
-----------------------
   0 C :   -0.152913
   1 C :    0.142801
   2 O :   -0.309066
   3 H :    0.175115
   4 H :    0.053434
   5 H :    0.036326
   6 H :    0.054303
Sum of atomic charges:   -0.0000000

LOEWDIN ATOMIC CHARGES
----------------------
   0 C :   -0.149132
   1 C :    0.012906
   2 O :   -0.004032
   3 H :    0.066601
   4 H :    0.028120
   5 H :    0.016607
   6 H :    0.028930

  Mayer bond orders larger than 0.1
B(  0-C ,  1-C ) :   1.9390 B(  0-C ,  4-H ) :   0.9697 B(  0-C ,  5-H ) :   0.9715
B(  1-C ,  2-O ) :   1.1073 B(  1-C ,  6-H ) :   0.9805 B(  2-O ,  3-H ) :   0.9893

E(0)                                       ...   -152.907179002
E(0)                                       ...   -152.907179002
E(CORR)(strong-pairs)                      ...     -0.486417235
E(CORR)(weak-pairs)                        ...     -0.000060208
E(CORR)(corrected)                         ...     -0.486477443
E(TOT)                                     ...   -153.393656445
E(CCSD(T))                                 ...   -153.407524857
FINAL SINGLE POINT ENERGY      -153.407524857156

DIPOLE MOMENT
-------------
                                X             Y             Z
Electronic contribution:     -2.04913       0.19277      -0.00002
Nuclear contribution   :      2.26059      -0.50716       0.00007
                        -----------------------------------------
Total Dipole Moment    :      0.21147      -0.31439       0.00005
                        -----------------------------------------
Magnitude (a.u.)       :      0.37889
Magnitude (Debye)      :      0.96307

Rotational constants in cm-1:     2.009744     0.349161     0.297479
Rotational constants in MHz : 60250.615397 10467.581656  8918.188852

                             ****ORCA TERMINATED NORMALLY****
TOTAL RUN TIME: 0 days 0 hours 0 minutes 10 seconds 526 msec
