 Gaussian 09, Revision A.01,
 Gaussian 09:  EM64L-G09RevA.01  8-May-2009

 -------------
 # mp2/cc-pVTZ
 -------------

 ------------------------------
 2_methylthiane_eq_single_point
 ------------------------------
 Symbolic Z-matrix:
 Charge =  0 Multiplicity = 1

                         Standard orientation:
 ---------------------------------------------------------------------
 Center     Atomic      Atomic             Coordinates (Angstroms)
 Number     Number       Type             X           Y           Z
 ---------------------------------------------------------------------
      1          6           0       -0.266495    1.438258   -0.227678
      2          6           0        1.220169    1.465336    0.163837
      3          6           0        1.992155    0.211733   -0.275927
      4          6           0        1.411368   -1.076694    0.312113
      5         16           0       -0.336015   -1.361130   -0.178462
      6          6           0       -1.046687    0.257918    0.366481
      7          6           0       -2.527578    0.282478   -0.017371
      8          1           0        1.989635    0.140486   -1.371039
      9          1           0        3.041256    0.300234    0.038260
     10          1           0        1.474786   -1.064668    1.407329
     11          1           0        1.959918   -1.955644   -0.039447
     12          1           0        1.691566    2.354833   -0.271427
     13          1           0        1.303095    1.575039    1.255340
     14          1           0       -0.961593    0.288892    1.461476
     15          1           0       -0.744806    2.368960    0.110087
     16          1           0       -0.362353    1.409362   -1.321543
     17          1           0       -2.990486    1.211913    0.334163
     18          1           0       -3.070642   -0.557054    0.428129
     19          1           0       -2.651729    0.231548   -1.104668
 ---------------------------------------------------------------------

 SCF Done:  E(RHF) =  -631.829809353     A.U. after   12 cycles
 E2 =    -0.1217681390D+01 EUMP2 =    -0.63304749074310D+03

 The electronic state is 1-A.
 Alpha  occ. eigenvalues --  -91.93189 -11.25936 -11.25250 -11.22758 -11.22637
 Alpha  occ. eigenvalues --  -11.22572 -11.22073  -8.93303  -6.61417  -6.61328
 Alpha  occ. eigenvalues --   -6.61240  -1.11801  -1.04264  -1.00346  -0.92417
 Alpha  occ. eigenvalues --   -0.83786  -0.80876  -0.74910  -0.63370  -0.61851
 Alpha  occ. eigenvalues --   -0.60698  -0.59039  -0.57406  -0.53403  -0.53138
 Alpha  occ. eigenvalues --   -0.50063  -0.48633  -0.47904  -0.47106  -0.43070
 Alpha  occ. eigenvalues --   -0.40647  -0.32980
 Alpha virt. eigenvalues --    0.13807   0.14678   0.15798   0.17185   0.17925
 Alpha virt. eigenvalues --    0.19746   0.20828   0.21450   0.22048   0.23077
 Alpha virt. eigenvalues --    0.23454   0.24607   0.25674   0.26566   0.29049

 Mulliken atomic charges:
              1
     1  C   -0.167271
     2  C   -0.210588
     3  C   -0.171836
     4  C   -0.181420
     5  S   -0.168276
     6  C   -0.063129
     7  C   -0.300873
     8  H    0.098028
     9  H    0.108359
    10  H    0.106107
    11  H    0.121696
    12  H    0.111721
    13  H    0.090396
    14  H    0.114338
    15  H    0.104937
    16  H    0.097317
    17  H    0.096497
    18  H    0.112399
    19  H    0.101598
 Sum of Mulliken atomic charges =   0.00000

 Dipole moment (field-independent basis, Debye):
    X=              0.8166    Y=              1.6525    Z=              0.6897  Tot=              1.9680
 Quadrupole moment (field-independent basis, Debye-Ang):
   XX=            -50.3044   YY=            -55.3149   ZZ=            -53.3814
   XY=             -2.5060   XZ=             -0.2085   YZ=             -0.3062

 Normal termination of Gaussian 09 at Tue Mar 15 22:00:23 2016.
