 Gaussian 09, Revision A.01,
 Gaussian 09:  EM64L-G09RevA.01  8-May-2009

 -------------
 # mp2/cc-pVTZ
 -------------

 ------------------------------
 2_methylthiane_ax_single_point
 ------------------------------
 Symbolic Z-matrix:
 Charge =  0 Multiplicity = 1

                         Standard orientation:
 ---------------------------------------------------------------------
 Center     Atomic      Atomic             Coordinates (Angstroms)
 Number     Number       Type             X           Y           Z
 ---------------------------------------------------------------------
      1          6           0       -0.220321    1.355554   -0.768682
      2          6           0        1.021472    1.474062    0.131671
      3          6           0        1.893782    0.208994    0.127242
      4          6           0        1.139611   -1.032847    0.609582
      5         16           0       -0.326517   -1.425684   -0.430109
      6          6           0       -1.186464    0.215829   -0.391271
      7          6           0       -1.939043    0.453543    0.924240
      8          1           0        2.272705    0.026943   -0.886656
      9          1           0        2.767747    0.363849    0.774713
     10          1           0        0.827980   -0.917401    1.654293
     11          1           0        1.771240   -1.924628    0.555566
     12          1           0        1.620839    2.328810   -0.204635
     13          1           0        0.717705    1.702739    1.162505
     14          1           0       -1.924749    0.116437   -1.195354
     15          1           0       -0.778925    2.301536   -0.743071
     16          1           0        0.104651    1.206760   -1.805836
     17          1           0       -2.661633   -0.346384    1.107102
     18          1           0       -2.483075    1.405991    0.881698
     19          1           0       -1.264430    0.495483    1.784731
 ---------------------------------------------------------------------

 SCF Done:  E(RHF) =  -631.826576067     A.U. after   13 cycles
 E2 =    -0.1218444386D+01 EUMP2 =    -0.63304502045312D+03

 The electronic state is 1-A.
 Alpha  occ. eigenvalues --  -91.93186 -11.26051 -11.25232 -11.22750 -11.22714
 Alpha  occ. eigenvalues --  -11.22537 -11.21959  -8.93286  -6.61403  -6.61310
 Alpha  occ. eigenvalues --   -6.61227  -1.11709  -1.03872  -1.00265  -0.92704
 Alpha  occ. eigenvalues --   -0.83668  -0.82088  -0.72948  -0.65059  -0.61492
 Alpha  occ. eigenvalues --   -0.60800  -0.57905  -0.56364  -0.55594  -0.52001
 Alpha  occ. eigenvalues --   -0.50526  -0.49452  -0.48024  -0.46454  -0.42869
 Alpha  occ. eigenvalues --   -0.40378  -0.32989
 Alpha virt. eigenvalues --    0.13253   0.15086   0.16000   0.17340   0.17477
 Alpha virt. eigenvalues --    0.19574   0.20471   0.21234   0.22759   0.23438
 Alpha virt. eigenvalues --    0.23866   0.24490   0.25114   0.26900   0.31438

 Mulliken atomic charges:
              1
     1  C   -0.181612
     2  C   -0.218804
     3  C   -0.172658
     4  C   -0.182270
     5  S   -0.173680
     6  C   -0.085766
     7  C   -0.280478
     8  H    0.097639
     9  H    0.108683
    10  H    0.109397
    11  H    0.124886
    12  H    0.116173
    13  H    0.096048
    14  H    0.122793
    15  H    0.106637
    16  H    0.109083
    17  H    0.115929
    18  H    0.096536
    19  H    0.091464
 Sum of Mulliken atomic charges =   0.00000

 Dipole moment (field-independent basis, Debye):
    X=              0.5213    Y=              1.7497    Z=              0.7326  Tot=              1.9672
 Quadrupole moment (field-independent basis, Debye-Ang):
   XX=            -50.5916   YY=            -55.7282   ZZ=            -53.3859
   XY=             -2.2161   XZ=              1.2096   YZ=             -1.6414

 Normal termination of Gaussian 09 at Tue Mar 15 21:46:29 2016.
