 Gaussian 09, Revision A.01,
 Gaussian 09:  EM64L-G09RevA.01  8-May-2009

 -------------
 # mp2/cc-pVTZ
 -------------

 -----------------------------
 2_propanethiol_a_single_point
 -----------------------------
 Symbolic Z-matrix:
 Charge =  0 Multiplicity = 1

                         Standard orientation:
 ---------------------------------------------------------------------
 Center     Atomic      Atomic             Coordinates (Angstroms)
 Number     Number       Type             X           Y           Z
 ---------------------------------------------------------------------
      1          6           0       -1.099859   -1.273053    0.112226
      2          6           0       -0.413503    0.000003   -0.390355
      3          6           0       -1.099833    1.273067    0.112229
      4         16           0        1.406006   -0.000006   -0.018814
      5          1           0        1.287184   -0.000053    1.326335
      6          1           0       -2.151671   -1.284682   -0.200045
      7          1           0       -0.612538   -2.170006   -0.278629
      8          1           0       -0.421621   -0.000007   -1.486857
      9          1           0       -0.612498    2.170011   -0.278626
     10          1           0       -1.077046    1.323756    1.207142
     11          1           0       -2.151647    1.284714   -0.200038
     12          1           0       -1.077093   -1.323736    1.207141
 ---------------------------------------------------------------------

 SCF Done:  E(RHF) =  -515.852808236     A.U. after   11 cycles
 E2 =    -0.7157552793D+00 EUMP2 =    -0.51656856351528D+03

 The electronic state is 1-A.
 Alpha  occ. eigenvalues --  -91.94391 -11.27221 -11.22556 -11.22554  -8.94583
 Alpha  occ. eigenvalues --   -6.62711  -6.62604  -6.62513  -1.08997  -0.94064
 Alpha  occ. eigenvalues --   -0.93785  -0.78549  -0.62970  -0.60148  -0.57354
 Alpha  occ. eigenvalues --   -0.54512  -0.52945  -0.49720  -0.48152  -0.43296
 Alpha  occ. eigenvalues --   -0.35328
 Alpha virt. eigenvalues --    0.12820   0.16003   0.16999   0.18108   0.18975
 Alpha virt. eigenvalues --    0.21175   0.23302   0.23466   0.25269   0.28813
 Alpha virt. eigenvalues --    0.32028   0.32233   0.36983   0.39853   0.41597

 Mulliken atomic charges:
              1
     1  C   -0.267650
     2  C   -0.058254
     3  C   -0.267646
     4  S   -0.201746
     5  H    0.084699
     6  H    0.095297
     7  H    0.114885
     8  H    0.112410
     9  H    0.114884
    10  H    0.088913
    11  H    0.095295
    12  H    0.088912
 Sum of Mulliken atomic charges =   0.00000

 Dipole moment (field-independent basis, Debye):
    X=             -1.7836    Y=              0.0000    Z=              0.3719  Tot=              1.8219
 Quadrupole moment (field-independent basis, Debye-Ang):
   XX=            -36.8674   YY=            -35.9808   ZZ=            -32.2524
   XY=              0.0000   XZ=              1.6211   YZ=             -0.0001

 Normal termination of Gaussian 09 at Tue Mar 15 22:03:13 2016.
