 Gaussian 09, Revision A.01,
 Gaussian 09:  EM64L-G09RevA.01  8-May-2009

 -------------
 # mp2/cc-pVTZ
 -------------

 -----------------------------
 2_propanethiol_g_single_point
 -----------------------------
 Symbolic Z-matrix:
 Charge =  0 Multiplicity = 1

                         Standard orientation:
 ---------------------------------------------------------------------
 Center     Atomic      Atomic             Coordinates (Angstroms)
 Number     Number       Type             X           Y           Z
 ---------------------------------------------------------------------
      1          6           0       -1.092741    1.275776   -0.142002
      2          6           0       -0.417744    0.015926    0.402309
      3          6           0       -1.095456   -1.265478   -0.091462
      4         16           0        1.373374   -0.082744   -0.089905
      5          1           0        1.745337    1.113039    0.411564
      6          1           0       -2.145329    1.300617    0.167996
      7          1           0       -0.613337    2.186140    0.232256
      8          1           0       -0.443275    0.030176    1.497107
      9          1           0       -0.619692   -2.159090    0.323934
     10          1           0       -1.059305   -1.332847   -1.184486
     11          1           0       -2.148029   -1.268695    0.213096
     12          1           0       -1.054703    1.297221   -1.236058
 ---------------------------------------------------------------------

 SCF Done:  E(RHF) =  -515.852850156     A.U. after   11 cycles
 E2 =    -0.7156450610D+00 EUMP2 =    -0.51656849521734D+03

 The electronic state is 1-A.
 Alpha  occ. eigenvalues --  -91.94342 -11.27144 -11.22681 -11.22602  -8.94538
 Alpha  occ. eigenvalues --   -6.62665  -6.62560  -6.62467  -1.09058  -0.94198
 Alpha  occ. eigenvalues --   -0.93744  -0.78050  -0.63726  -0.60450  -0.57824
 Alpha  occ. eigenvalues --   -0.54722  -0.51131  -0.49951  -0.48608  -0.43308
 Alpha  occ. eigenvalues --   -0.35296
 Alpha virt. eigenvalues --    0.12531   0.16906   0.17544   0.18071   0.18328
 Alpha virt. eigenvalues --    0.21203   0.21914   0.24028   0.25463   0.28745
 Alpha virt. eigenvalues --    0.30931   0.36417   0.37366   0.39490   0.41287

 Mulliken atomic charges:
              1
     1  C   -0.270396
     2  C   -0.058626
     3  C   -0.288020
     4  S   -0.199982
     5  H    0.085657
     6  H    0.094243
     7  H    0.099532
     8  H    0.122793
     9  H    0.113114
    10  H    0.102324
    11  H    0.096716
    12  H    0.102647
 Sum of Mulliken atomic charges =   0.00000

 Dipole moment (field-independent basis, Debye):
    X=             -1.5370    Y=              0.7396    Z=              0.7042  Tot=              1.8453
 Quadrupole moment (field-independent basis, Debye-Ang):
   XX=            -35.4799   YY=            -33.5186   ZZ=            -35.2557
   XY=              2.1248   XZ=              0.3972   YZ=              0.9542

 Normal termination of Gaussian 09 at Tue Mar 15 22:06:01 2016.
