 Gaussian 09, Revision A.01,
 Gaussian 09:  EM64L-G09RevA.01  8-May-2009

 -------------
 # mp2/cc-pVTZ
 -------------

 ------------------------------
 3_methylthiane_eq_single_point
 ------------------------------
 Symbolic Z-matrix:
 Charge =  0 Multiplicity = 1

                         Standard orientation:
 ---------------------------------------------------------------------
 Center     Atomic      Atomic             Coordinates (Angstroms)
 Number     Number       Type             X           Y           Z
 ---------------------------------------------------------------------
      1          6           0       -1.217351   -0.078202   -0.321961
      2          6           0       -0.744788    1.318111    0.126150
      3          6           0        0.711149    1.642023   -0.247201
      4          6           0        1.717818    0.661183    0.359683
      5         16           0        1.431334   -1.068528   -0.183345
      6          6           0       -0.342135   -1.189240    0.279578
      7          6           0       -2.692028   -0.303898    0.045877
      8          1           0        0.821917    1.639272   -1.338943
      9          1           0        0.956722    2.655940    0.097461
     10          1           0        1.686114    0.701032    1.455674
     11          1           0        2.739387    0.901079    0.050077
     12          1           0       -1.406160    2.076218   -0.312430
     13          1           0       -0.865364    1.398677    1.217695
     14          1           0       -0.426136   -1.187870    1.374434
     15          1           0       -1.119398   -0.136402   -1.415336
     16          1           0       -0.668273   -2.173281   -0.072301
     17          1           0       -2.839174   -0.263245    1.132387
     18          1           0       -3.329878    0.465229   -0.404448
     19          1           0       -3.047092   -1.280056   -0.303513
 ---------------------------------------------------------------------

 SCF Done:  E(RHF) =  -631.829473166     A.U. after   11 cycles
 E2 =    -0.1217400531D+01 EUMP2 =    -0.63304687369718D+03

 The electronic state is 1-A.
 Alpha  occ. eigenvalues --  -91.93478 -11.25296 -11.25159 -11.23440 -11.22832
 Alpha  occ. eigenvalues --  -11.22497 -11.21867  -8.93568  -6.61688  -6.61596
 Alpha  occ. eigenvalues --   -6.61509  -1.11999  -1.03972  -1.00342  -0.92626
 Alpha  occ. eigenvalues --   -0.83925  -0.80806  -0.75335  -0.64376  -0.62118
 Alpha  occ. eigenvalues --   -0.59698  -0.58569  -0.56521  -0.54454  -0.52999
 Alpha  occ. eigenvalues --   -0.49699  -0.49043  -0.48749  -0.46554  -0.43221
 Alpha  occ. eigenvalues --   -0.41009  -0.33025
 Alpha virt. eigenvalues --    0.13707   0.14676   0.15712   0.17531   0.17774
 Alpha virt. eigenvalues --    0.19972   0.20598   0.20898   0.21388   0.22975
 Alpha virt. eigenvalues --    0.23970   0.24699   0.26032   0.27167   0.29075

 Mulliken atomic charges:
              1
     1  C   -0.062992
     2  C   -0.198294
     3  C   -0.183492
     4  C   -0.173458
     5  S   -0.165604
     6  C   -0.172623
     7  C   -0.303215
     8  H    0.099004
     9  H    0.108448
    10  H    0.105871
    11  H    0.121829
    12  H    0.108236
    13  H    0.089665
    14  H    0.106391
    15  H    0.109461
    16  H    0.119802
    17  H    0.089452
    18  H    0.100009
    19  H    0.101511
 Sum of Mulliken atomic charges =   0.00000

 Dipole moment (field-independent basis, Debye):
    X=             -1.2717    Y=              1.4044    Z=              0.5452  Tot=              1.9715
 Quadrupole moment (field-independent basis, Debye-Ang):
   XX=            -54.1414   YY=            -53.3450   ZZ=            -53.4895
   XY=              4.2452   XZ=              0.9002   YZ=             -0.1111

 Normal termination of Gaussian 09 at Tue Mar 15 22:35:26 2016.
