 Gaussian 09, Revision A.01,
 Gaussian 09:  EM64L-G09RevA.01  8-May-2009

 -------------
 # mp2/cc-pVTZ
 -------------

 ------------------------------
 3_methylthiane_ax_single_point
 ------------------------------
 Symbolic Z-matrix:
 Charge =  0 Multiplicity = 1

                         Standard orientation:
 ---------------------------------------------------------------------
 Center     Atomic      Atomic             Coordinates (Angstroms)
 Number     Number       Type             X           Y           Z
 ---------------------------------------------------------------------
      1          6           0       -1.326519   -0.174499    0.460290
      2          6           0       -0.858009    1.296599    0.542321
      3          6           0        0.345900    1.644622   -0.350617
      4          6           0        1.586825    0.806289   -0.028751
      5         16           0        1.299580   -0.994015   -0.257191
      6          6           0       -0.182802   -1.141699    0.821416
      7          6           0       -1.991074   -0.519372   -0.881321
      8          1           0        0.088520    1.515975   -1.408463
      9          1           0        0.595229    2.705877   -0.213767
     10          1           0        1.917405    0.984811    1.002421
     11          1           0        2.419739    1.059973   -0.691135
     12          1           0       -1.699685    1.953870    0.290194
     13          1           0       -0.593807    1.521358    1.586087
     14          1           0        0.130292   -0.984213    1.860751
     15          1           0       -2.087700   -0.307122    1.244264
     16          1           0       -0.508538   -2.182876    0.730774
     17          1           0       -1.281864   -0.471731   -1.712533
     18          1           0       -2.403866   -1.534585   -0.859530
     19          1           0       -2.814929    0.171258   -1.094042
 ---------------------------------------------------------------------

 SCF Done:  E(RHF) =  -631.826244247     A.U. after   12 cycles
 E2 =    -0.1218587841D+01 EUMP2 =    -0.63304483208842D+03

 The electronic state is 1-A.
 Alpha  occ. eigenvalues --  -91.93430 -11.25309 -11.25205 -11.23544 -11.22795
 Alpha  occ. eigenvalues --  -11.22506 -11.21177  -8.93523  -6.61643  -6.61552
 Alpha  occ. eigenvalues --   -6.61464  -1.11882  -1.03480  -1.00257  -0.92762
 Alpha  occ. eigenvalues --   -0.83773  -0.81928  -0.72883  -0.64556  -0.62211
 Alpha  occ. eigenvalues --   -0.60834  -0.58699  -0.55964  -0.54930  -0.51257
 Alpha  occ. eigenvalues --   -0.50344  -0.49052  -0.48469  -0.46300  -0.43000
 Alpha  occ. eigenvalues --   -0.40824  -0.33009
 Alpha virt. eigenvalues --    0.13063   0.15087   0.15993   0.17646   0.17792
 Alpha virt. eigenvalues --    0.19314   0.20233   0.20938   0.22000   0.23266
 Alpha virt. eigenvalues --    0.23869   0.25807   0.26602   0.26711   0.29290

 Mulliken atomic charges:
              1
     1  C   -0.088237
     2  C   -0.207054
     3  C   -0.191245
     4  C   -0.173837
     5  S   -0.166192
     6  C   -0.181095
     7  C   -0.304211
     8  H    0.104921
     9  H    0.113490
    10  H    0.104435
    11  H    0.122665
    12  H    0.109122
    13  H    0.100168
    14  H    0.118935
    15  H    0.113884
    16  H    0.118715
    17  H    0.108953
    18  H    0.099395
    19  H    0.097187
 Sum of Mulliken atomic charges =   0.00000

 Dipole moment (field-independent basis, Debye):
    X=             -1.1039    Y=              1.3834    Z=              0.8800  Tot=              1.9765
 Quadrupole moment (field-independent basis, Debye-Ang):
   XX=            -54.1072   YY=            -52.9049   ZZ=            -53.1697
   XY=              3.8298   XZ=             -0.3510   YZ=             -1.2889

 Normal termination of Gaussian 09 at Tue Mar 15 22:20:47 2016.
