 Gaussian 09, Revision A.01,
 Gaussian 09:  EM64L-G09RevA.01  8-May-2009

 -------------
 # mp2/cc-pVTZ
 -------------

 ------------------------------
 4_methylthiane_ax_single_point
 ------------------------------
 Symbolic Z-matrix:
 Charge =  0 Multiplicity = 1

                         Standard orientation:
 ---------------------------------------------------------------------
 Center     Atomic      Atomic             Coordinates (Angstroms)
 Number     Number       Type             X           Y           Z
 ---------------------------------------------------------------------
      1          6           0        0.553422   -1.277225    0.661616
      2          6           0        1.403787    0.000002    0.473499
      3          6           0        0.553419    1.277237    0.661615
      4          6           0       -0.645839    1.388950   -0.285334
      5         16           0       -1.835784   -0.000008   -0.095706
      6          6           0       -0.645816   -1.388948   -0.285330
      7          6           0        2.179792   -0.000003   -0.855483
      8          1           0        0.186404    1.313181    1.694909
      9          1           0        1.194067    2.159022    0.518596
     10          1           0       -0.327136    1.446710   -1.331820
     11          1           0       -1.221582    2.294369   -0.071523
     12          1           0        2.151587    0.000019    1.278531
     13          1           0       -0.327120   -1.446702   -1.331819
     14          1           0        1.194056   -2.159025    0.518615
     15          1           0       -1.221545   -2.294370   -0.071502
     16          1           0        0.186395   -1.313155    1.694908
     17          1           0        2.822171    0.884928   -0.930642
     18          1           0        2.822163   -0.884938   -0.930639
     19          1           0        1.520497    0.000007   -1.729826
 ---------------------------------------------------------------------

 SCF Done:  E(RHF) =  -631.825642013     A.U. after   12 cycles
 E2 =    -0.1218312663D+01 EUMP2 =    -0.63304395467631D+03

 The electronic state is 1-A.
 Alpha  occ. eigenvalues --  -91.93424 -11.25249 -11.25249 -11.23364 -11.22708
 Alpha  occ. eigenvalues --  -11.22705 -11.21791  -8.93513  -6.61632  -6.61540
 Alpha  occ. eigenvalues --   -6.61452  -1.11920  -1.02497  -1.01641  -0.92572
 Alpha  occ. eigenvalues --   -0.84161  -0.81850  -0.72697  -0.65493  -0.62449
 Alpha  occ. eigenvalues --   -0.60371  -0.56976  -0.56153  -0.55242  -0.53988
 Alpha  occ. eigenvalues --   -0.51577  -0.48368  -0.47214  -0.46145  -0.42936
 Alpha  occ. eigenvalues --   -0.41082  -0.32999
 Alpha virt. eigenvalues --    0.13077   0.15360   0.15520   0.17423   0.17593
 Alpha virt. eigenvalues --    0.19907   0.20545   0.20808   0.21633   0.23575
 Alpha virt. eigenvalues --    0.24145   0.24496   0.26890   0.27109   0.30822

 Mulliken atomic charges:
              1
     1  C   -0.182084
     2  C   -0.098844
     3  C   -0.182089
     4  C   -0.187654
     5  S   -0.164891
     6  C   -0.187652
     7  C   -0.315027
     8  H    0.108462
     9  H    0.105368
    10  H    0.112243
    11  H    0.126158
    12  H    0.113930
    13  H    0.112244
    14  H    0.105368
    15  H    0.126158
    16  H    0.108460
    17  H    0.104463
    18  H    0.104464
    19  H    0.090924
 Sum of Mulliken atomic charges =   0.00000

 Dipole moment (field-independent basis, Debye):
    X=              2.0430    Y=              0.0000    Z=             -0.0520  Tot=              2.0437
 Quadrupole moment (field-independent basis, Debye-Ang):
   XX=            -58.1499   YY=            -49.2390   ZZ=            -53.8320
   XY=              0.0000   XZ=             -0.0210   YZ=              0.0000

 Normal termination of Gaussian 09 at Tue Mar 15 22:50:22 2016.
