 Gaussian 09, Revision A.01,
 Gaussian 09:  EM64L-G09RevA.01  8-May-2009

 -------------
 # mp2/cc-pVTZ
 -------------

 -------------------------------
 4_methylthiane_eqx_single_point
 -------------------------------
 Symbolic Z-matrix:
 Charge =  0 Multiplicity = 1

                         Standard orientation:
 ---------------------------------------------------------------------
 Center     Atomic      Atomic             Coordinates (Angstroms)
 Number     Number       Type             X           Y           Z
 ---------------------------------------------------------------------
      1          6           0       -0.582086   -1.276564   -0.163303
      2          6           0       -1.304546    0.000004    0.309634
      3          6           0       -0.582102    1.276574   -0.163322
      4          6           0        0.866106    1.382381    0.323963
      5         16           0        1.922723    0.000001   -0.262149
      6          6           0        0.866101   -1.382384    0.323946
      7          6           0       -2.771706   -0.000008   -0.139641
      8          1           0       -0.596976    1.316598   -1.260744
      9          1           0       -1.135318    2.155609    0.197000
     10          1           0        0.904209    1.419666    1.419817
     11          1           0        1.339850    2.294128   -0.052042
     12          1           0       -1.289037    0.000020    1.411743
     13          1           0        0.904222   -1.419684    1.419797
     14          1           0       -1.135283   -2.155599    0.197052
     15          1           0        1.339854   -2.294117   -0.052083
     16          1           0       -0.596972   -1.316607   -1.260724
     17          1           0       -3.300720   -0.885648    0.230572
     18          1           0       -3.300739    0.885636    0.230530
     19          1           0       -2.847252   -0.000038   -1.234189
 ---------------------------------------------------------------------

 SCF Done:  E(RHF) =  -631.829497576     A.U. after   11 cycles
 E2 =    -0.1217262827D+01 EUMP2 =    -0.63304676040268D+03

 The electronic state is 1-A.
 Alpha  occ. eigenvalues --  -91.93481 -11.25329 -11.25328 -11.23306 -11.22700
 Alpha  occ. eigenvalues --  -11.22696 -11.21719  -8.93575  -6.61695  -6.61604
 Alpha  occ. eigenvalues --   -6.61515  -1.12031  -1.03026  -1.01681  -0.91991
 Alpha  occ. eigenvalues --   -0.84309  -0.80803  -0.75261  -0.62798  -0.61645
 Alpha  occ. eigenvalues --   -0.61420  -0.58695  -0.57569  -0.53915  -0.52867
 Alpha  occ. eigenvalues --   -0.50522  -0.48887  -0.48065  -0.46217  -0.43060
 Alpha  occ. eigenvalues --   -0.41193  -0.33088
 Alpha virt. eigenvalues --    0.13738   0.15066   0.15389   0.16517   0.18197
 Alpha virt. eigenvalues --    0.19996   0.21044   0.21361   0.21991   0.23202
 Alpha virt. eigenvalues --    0.23751   0.23864   0.25268   0.27343   0.29173

 Mulliken atomic charges:
              1
     1  C   -0.170775
     2  C   -0.090506
     3  C   -0.170781
     4  C   -0.179098
     5  S   -0.163138
     6  C   -0.179096
     7  C   -0.303802
     8  H    0.098737
     9  H    0.105704
    10  H    0.106738
    11  H    0.122000
    12  H    0.099896
    13  H    0.106739
    14  H    0.105701
    15  H    0.122000
    16  H    0.098737
    17  H    0.099552
    18  H    0.099554
    19  H    0.091840
 Sum of Mulliken atomic charges =   0.00000

 Dipole moment (field-independent basis, Debye):
    X=             -1.8144    Y=              0.0000    Z=              0.8227  Tot=              1.9922
 Quadrupole moment (field-independent basis, Debye-Ang):
   XX=            -58.8918   YY=            -49.2539   ZZ=            -53.5380
   XY=             -0.0001   XZ=              0.5722   YZ=              0.0000

 Normal termination of Gaussian 09 at Tue Mar 15 23:04:07 2016.
