 Gaussian 09, Revision A.01,
 Gaussian 09:  EM64L-G09RevA.01  8-May-2009

 -------------
 # mp2/cc-pVTZ
 -------------

 --------------------------
 ethanethiol_g_single_point
 --------------------------
 Symbolic Z-matrix:
 Charge =  0 Multiplicity = 1

                         Standard orientation:
 ---------------------------------------------------------------------
 Center     Atomic      Atomic             Coordinates (Angstroms)
 Number     Number       Type             X           Y           Z
 ---------------------------------------------------------------------
      1          6           0       -1.652078   -0.352044   -0.053744
      2          6           0       -0.504634    0.644844    0.091431
      3         16           0        1.175057   -0.099077   -0.080027
      4          1           0        1.085596   -0.936440    0.974304
      5          1           0       -0.541908    1.397998   -0.701479
      6          1           0       -0.559052    1.177410    1.045180
      7          1           0       -1.624802   -1.107372    0.738994
      8          1           0       -1.604617   -0.870874   -1.015620
      9          1           0       -2.615848    0.167705    0.012927
 ---------------------------------------------------------------------

 SCF Done:  E(RHF) =  -476.804728893     A.U. after   12 cycles
 E2 =    -0.5384611622D+00 EUMP2 =    -0.47734319005481D+03

 The electronic state is 1-A.
 Alpha  occ. eigenvalues --  -91.94733 -11.26574 -11.22821  -8.94908  -6.63038
 Alpha  occ. eigenvalues --   -6.62934  -6.62839  -1.06468  -0.94019  -0.82120
 Alpha  occ. eigenvalues --   -0.63343  -0.58811  -0.55232  -0.52260  -0.49564
 Alpha  occ. eigenvalues --   -0.44337  -0.35494
 Alpha virt. eigenvalues --    0.12570   0.16393   0.17318   0.19405   0.19770
 Alpha virt. eigenvalues --    0.22595   0.23597   0.30027   0.35401   0.37268
 Alpha virt. eigenvalues --    0.39409   0.40277   0.42547   0.42806   0.44633

 Mulliken atomic charges:
              1
     1  C   -0.260940
     2  C   -0.145620
     3  S   -0.189770
     4  H    0.084840
     5  H    0.105867
     6  H    0.114768
     7  H    0.089653
     8  H    0.104191
     9  H    0.097011
 Sum of Mulliken atomic charges =   0.00000

 Dipole moment (field-independent basis, Debye):
    X=             -1.6343    Y=              0.1358    Z=              0.7179  Tot=              1.7902
 Quadrupole moment (field-independent basis, Debye-Ang):
   XX=            -29.5171   YY=            -27.3320   ZZ=            -27.1777
   XY=             -1.3525   XZ=              0.7191   YZ=             -1.7088

 Normal termination of Gaussian 09 at Tue Mar 15 23:06:07 2016.
