 Gaussian 09, Revision A.01,
 Gaussian 09:  EM64L-G09RevA.01  8-May-2009

 -------------
 # mp2/cc-pVTZ
 -------------

 --------------------------
 ethanethiol_a_single_point
 --------------------------
 Symbolic Z-matrix:
 Charge =  0 Multiplicity = 1

                         Standard orientation:
 ---------------------------------------------------------------------
 Center     Atomic      Atomic             Coordinates (Angstroms)
 Number     Number       Type             X           Y           Z
 ---------------------------------------------------------------------
      1          6           0        1.645368   -0.335443    0.000002
      2          6           0        0.497067    0.672141   -0.000002
      3         16           0       -1.116150   -0.233024   -0.000001
      4          1           0       -1.916488    0.852667    0.000018
      5          1           0        0.545509    1.308208    0.888054
      6          1           0        0.545503    1.308217   -0.888052
      7          1           0        1.612061   -0.976643   -0.886753
      8          1           0        1.612069   -0.976627    0.886769
      9          1           0        2.605139    0.192380   -0.000016
 ---------------------------------------------------------------------

 SCF Done:  E(RHF) =  -476.804199976     A.U. after   11 cycles
 E2 =    -0.5381840254D+00 EUMP2 =    -0.47734238400096D+03

 The electronic state is 1-A.
 Alpha  occ. eigenvalues --  -91.94652 -11.26518 -11.22918  -8.94833  -6.62961
 Alpha  occ. eigenvalues --   -6.62861  -6.62762  -1.06476  -0.93991  -0.81701
 Alpha  occ. eigenvalues --   -0.62873  -0.61140  -0.53985  -0.51362  -0.49900
 Alpha  occ. eigenvalues --   -0.44485  -0.35410
 Alpha virt. eigenvalues --    0.12545   0.16533   0.17872   0.19291   0.19892
 Alpha virt. eigenvalues --    0.21349   0.23212   0.30682   0.36952   0.37991
 Alpha virt. eigenvalues --    0.39119   0.39824   0.43541   0.44338   0.45074

 Mulliken atomic charges:
              1
     1  C   -0.281532
     2  C   -0.135356
     3  S   -0.192116
     4  H    0.087522
     5  H    0.108499
     6  H    0.108500
     7  H    0.102637
     8  H    0.102638
     9  H    0.099209
 Sum of Mulliken atomic charges =   0.00000

 Dipole moment (field-independent basis, Debye):
    X=              1.1001    Y=              1.3934    Z=              0.0000  Tot=              1.7754
 Quadrupole moment (field-independent basis, Debye-Ang):
   XX=            -26.6306   YY=            -27.0767   ZZ=            -29.1558
   XY=             -1.6977   XZ=             -0.0001   YZ=              0.0000

 Normal termination of Gaussian 09 at Tue Mar 15 23:05:06 2016.
