 Gaussian 09, Revision A.01,
 Gaussian 09:  EM64L-G09RevA.01  8-May-2009

 -------------
 # mp2/cc-pVTZ
 -------------

 -------------------------------------
 Me_vinyl_sulfone_s_trans_single_point
 -------------------------------------
 Symbolic Z-matrix:
 Charge =  0 Multiplicity = 1

                         Standard orientation:
 ---------------------------------------------------------------------
 Center     Atomic      Atomic             Coordinates (Angstroms)
 Number     Number       Type             X           Y           Z
 ---------------------------------------------------------------------
      1          6           0        2.127702   -1.043572    0.000000
      2          6           0        1.406095    0.073991    0.000000
      3         16           0       -0.396359    0.010884    0.000000
      4          8           0       -0.850039   -0.575694    1.274068
      5          6           0       -0.850039    1.760320    0.000000
      6          8           0       -0.850039   -0.575694   -1.274068
      7          1           0       -1.941556    1.778035    0.000000
      8          1           0       -0.465285    2.234994    0.904302
      9          1           0       -0.465285    2.234994   -0.904302
     10          1           0        3.212710   -1.001981    0.000000
     11          1           0        1.664866   -2.026221    0.000000
     12          1           0        1.834363    1.072696    0.000000
 ---------------------------------------------------------------------

 SCF Done:  E(RHF) =  -664.380940883     A.U. after   13 cycles
 E2 =    -0.1166412435D+01 EUMP2 =    -0.66554735331735D+03

 The electronic state is 1-A'.
 Alpha  occ. eigenvalues --  -92.18375 -20.53855 -20.53853 -11.28662 -11.28253
 Alpha  occ. eigenvalues --  -11.27905  -9.15311  -6.83789  -6.83727  -6.83694
 Alpha  occ. eigenvalues --   -1.42910  -1.31875  -1.09719  -1.03846  -0.89076
 Alpha  occ. eigenvalues --   -0.78468  -0.70439  -0.66774  -0.64841  -0.63760
 Alpha  occ. eigenvalues --   -0.59855  -0.59698  -0.58208  -0.49967  -0.48349
 Alpha  occ. eigenvalues --   -0.46505  -0.43863  -0.41065
 Alpha virt. eigenvalues --    0.09785   0.12246   0.14655   0.17596   0.19044
 Alpha virt. eigenvalues --    0.19611   0.20284   0.22054   0.25472   0.27128
 Alpha virt. eigenvalues --    0.30100   0.32352   0.37013   0.37926   0.39619

 Mulliken atomic charges:
              1
     1  C   -0.237729
     2  C   -0.198121
     3  S    1.000624
     4  O   -0.571792
     5  C   -0.291492
     6  O   -0.571792
     7  H    0.137986
     8  H    0.120827
     9  H    0.120827
    10  H    0.165303
    11  H    0.165892
    12  H    0.159467
 Sum of Mulliken atomic charges =   0.00000

 Dipole moment (field-independent basis, Debye):
    X=              3.5194    Y=              3.6495    Z=              0.0000  Tot=              5.0700
 Quadrupole moment (field-independent basis, Debye-Ang):
   XX=            -38.2759   YY=            -37.1430   ZZ=            -51.6703
   XY=             -5.8603   XZ=              0.0000   YZ=              0.0000

 Normal termination of Gaussian 09 at Tue Mar 15 23:25:39 2016.
