 Gaussian 09, Revision A.01,
 Gaussian 09:  EM64L-G09RevA.01  8-May-2009

 -------------
 # mp2/cc-pVTZ
 -------------

 ------------------------------------
 Me_vinyl_sulfone_gauche_single_point
 ------------------------------------
 Symbolic Z-matrix:
 Charge =  0 Multiplicity = 1

                         Standard orientation:
 ---------------------------------------------------------------------
 Center     Atomic      Atomic             Coordinates (Angstroms)
 Number     Number       Type             X           Y           Z
 ---------------------------------------------------------------------
      1          6           0        2.318201    0.180876    0.062778
      2          6           0        1.211386    0.295530   -0.666422
      3         16           0       -0.380185   -0.193954    0.008400
      4          8           0       -0.161211   -0.744666    1.358114
      5          6           0       -1.270789    1.369801    0.190585
      6          8           0       -1.070511   -0.980487   -1.029751
      7          1           0       -2.256793    1.109308    0.581613
      8          1           0       -0.732921    2.005369    0.895283
      9          1           0       -1.365272    1.843045   -0.788201
     10          1           0        3.289110    0.429241   -0.355958
     11          1           0        2.274430   -0.178780    1.086946
     12          1           0        1.175399    0.619071   -1.702626
 ---------------------------------------------------------------------

 SCF Done:  E(RHF) =  -664.389005010     A.U. after   13 cycles
 E2 =    -0.1165263547D+01 EUMP2 =    -0.66555426855681D+03

 The electronic state is 1-A.
 Alpha  occ. eigenvalues --  -92.18325 -20.54171 -20.53899 -11.28528 -11.28044
 Alpha  occ. eigenvalues --  -11.28032  -9.15262  -6.83730  -6.83685  -6.83656
 Alpha  occ. eigenvalues --   -1.43033  -1.32204  -1.09773  -1.03464  -0.89168
 Alpha  occ. eigenvalues --   -0.78264  -0.70334  -0.66646  -0.65539  -0.63732
 Alpha  occ. eigenvalues --   -0.60596  -0.59494  -0.57113  -0.49074  -0.48880
 Alpha  occ. eigenvalues --   -0.46512  -0.43889  -0.42253
 Alpha virt. eigenvalues --    0.09631   0.12900   0.15217   0.16907   0.19974
 Alpha virt. eigenvalues --    0.20285   0.20965   0.22182   0.26507   0.26971
 Alpha virt. eigenvalues --    0.28887   0.32601   0.35950   0.38521   0.39634

 Mulliken atomic charges:
              1
     1  C   -0.240278
     2  C   -0.250871
     3  S    1.009055
     4  O   -0.574613
     5  C   -0.274889
     6  O   -0.571994
     7  H    0.131423
     8  H    0.120176
     9  H    0.116418
    10  H    0.166559
    11  H    0.192030
    12  H    0.176982
 Sum of Mulliken atomic charges =   0.00000

 Dipole moment (field-independent basis, Debye):
    X=              2.2556    Y=              4.7293    Z=             -0.6698  Tot=              5.2823
 Quadrupole moment (field-independent basis, Debye-Ang):
   XX=            -36.1975   YY=            -44.7472   ZZ=            -47.0492
   XY=             -4.0155   XZ=             -2.4943   YZ=             -0.8298

 Normal termination of Gaussian 09 at Tue Mar 15 23:23:05 2016.
