 Gaussian 09, Revision A.01,
 Gaussian 09:  EM64L-G09RevA.01  8-May-2009

 -------------
 # mp2/cc-pVTZ
 -------------

 ---------------------------
 MeEt_sulfone_g_single_point
 ---------------------------
 Symbolic Z-matrix:
 Charge =  0 Multiplicity = 1

                         Standard orientation:
 ---------------------------------------------------------------------
 Center     Atomic      Atomic             Coordinates (Angstroms)
 Number     Number       Type             X           Y           Z
 ---------------------------------------------------------------------
      1          6           0       -2.297331    0.177712    0.049222
      2          6           0       -1.134104   -0.535451   -0.633391
      3         16           0        0.503250   -0.155072    0.075981
      4          8           0        1.494463   -0.954177   -0.669139
      5          6           0        0.795318    1.585962   -0.327175
      6          8           0        0.406252   -0.262875    1.544504
      7          1           0       -3.241054   -0.185104   -0.370214
      8          1           0       -2.297719   -0.021225    1.123628
      9          1           0       -2.263007    1.260804   -0.104550
     10          1           0       -1.194603   -1.622133   -0.515522
     11          1           0       -1.059421   -0.316913   -1.702903
     12          1           0        1.786077    1.814412    0.070539
     13          1           0        0.785980    1.710942   -1.411162
     14          1           0        0.042732    2.207455    0.159636
 ---------------------------------------------------------------------

 SCF Done:  E(RHF) =  -665.586647745     A.U. after   13 cycles
 E2 =    -0.1199490083D+01 EUMP2 =    -0.66678613782821D+03

 The electronic state is 1-A.
 Alpha  occ. eigenvalues --  -92.17602 -20.53719 -20.53642 -11.28525 -11.27986
 Alpha  occ. eigenvalues --  -11.25060  -9.14615  -6.83070  -6.83016  -6.82999
 Alpha  occ. eigenvalues --   -1.42589  -1.31750  -1.08798  -1.02782  -0.91644
 Alpha  occ. eigenvalues --   -0.80203  -0.68168  -0.67366  -0.64853  -0.63271
 Alpha  occ. eigenvalues --   -0.59967  -0.59505  -0.57747  -0.54995  -0.53195
 Alpha  occ. eigenvalues --   -0.48508  -0.48162  -0.45921  -0.42753
 Alpha virt. eigenvalues --    0.11676   0.15428   0.15964   0.17430   0.19876
 Alpha virt. eigenvalues --    0.20614   0.21070   0.21806   0.22633   0.26363
 Alpha virt. eigenvalues --    0.27559   0.28347   0.31182   0.35262   0.37003

 Mulliken atomic charges:
              1
     1  C   -0.298683
     2  C   -0.208609
     3  S    0.975256
     4  O   -0.576767
     5  C   -0.291181
     6  O   -0.581031
     7  H    0.116854
     8  H    0.133872
     9  H    0.092549
    10  H    0.133427
    11  H    0.126644
    12  H    0.139674
    13  H    0.118162
    14  H    0.119833
 Sum of Mulliken atomic charges =   0.00000

 Dipole moment (field-independent basis, Debye):
    X=             -3.5297    Y=              3.2453    Z=             -2.4641  Tot=              5.3910
 Quadrupole moment (field-independent basis, Debye-Ang):
   XX=            -44.5023   YY=            -41.8821   ZZ=            -49.2860
   XY=              5.9746   XZ=              1.5096   YZ=             -0.8298

 Normal termination of Gaussian 09 at Tue Mar 15 23:14:27 2016.
