 Gaussian 09, Revision A.01,
 Gaussian 09:  EM64L-G09RevA.01  8-May-2009

 -------------
 # mp2/cc-pVTZ
 -------------

 ---------------------------
 MeEt_sulfone_a_single_point
 ---------------------------
 Symbolic Z-matrix:
 Charge =  0 Multiplicity = 1

                         Standard orientation:
 ---------------------------------------------------------------------
 Center     Atomic      Atomic             Coordinates (Angstroms)
 Number     Number       Type             X           Y           Z
 ---------------------------------------------------------------------
      1          6           0        1.942346   -1.317422    0.000000
      2          6           0        1.386780    0.106165    0.000000
      3         16           0       -0.438414    0.084992    0.000000
      4          8           0       -0.891188   -0.494992    1.279465
      5          6           0       -0.891188    1.837556    0.000000
      6          8           0       -0.891188   -0.494992   -1.279465
      7          1           0        3.035780   -1.277393    0.000000
      8          1           0        1.615700   -1.864072    0.888164
      9          1           0        1.615700   -1.864072   -0.888164
     10          1           0        1.685372    0.662564    0.893578
     11          1           0        1.685372    0.662564   -0.893578
     12          1           0       -1.982870    1.859230    0.000000
     13          1           0       -0.504524    2.311694    0.903612
     14          1           0       -0.504524    2.311694   -0.903612
 ---------------------------------------------------------------------

 SCF Done:  E(RHF) =  -665.587476225     A.U. after   12 cycles
 E2 =    -0.1198997982D+01 EUMP2 =    -0.66678647420746D+03

 The electronic state is 1-A'.
 Alpha  occ. eigenvalues --  -92.17555 -20.53645 -20.53643 -11.28522 -11.28020
 Alpha  occ. eigenvalues --  -11.24250  -9.14577  -6.83028  -6.82977  -6.82960
 Alpha  occ. eigenvalues --   -1.42536  -1.31670  -1.08447  -1.03067  -0.90720
 Alpha  occ. eigenvalues --   -0.80096  -0.68457  -0.66745  -0.65128  -0.63123
 Alpha  occ. eigenvalues --   -0.60753  -0.59407  -0.55807  -0.54890  -0.52969
 Alpha  occ. eigenvalues --   -0.48490  -0.47957  -0.45822  -0.42807
 Alpha virt. eigenvalues --    0.12014   0.14543   0.16328   0.18111   0.19663
 Alpha virt. eigenvalues --    0.20997   0.21628   0.21958   0.23557   0.25360
 Alpha virt. eigenvalues --    0.26996   0.27929   0.30664   0.34243   0.38433

 Mulliken atomic charges:
              1
     1  C   -0.301340
     2  C   -0.188525
     3  S    0.978343
     4  O   -0.583751
     5  C   -0.282173
     6  O   -0.583751
     7  H    0.106087
     8  H    0.124036
     9  H    0.124036
    10  H    0.118318
    11  H    0.118318
    12  H    0.135963
    13  H    0.117219
    14  H    0.117219
 Sum of Mulliken atomic charges =   0.00000

 Dipole moment (field-independent basis, Debye):
    X=              3.4371    Y=              3.8594    Z=              0.0000  Tot=              5.1680
 Quadrupole moment (field-independent basis, Debye-Ang):
   XX=            -42.2008   YY=            -40.0641   ZZ=            -50.8298
   XY=             -4.7535   XZ=              0.0000   YZ=              0.0000

 Normal termination of Gaussian 09 at Tue Mar 15 23:09:34 2016.
