 Gaussian 09, Revision A.01,
 Gaussian 09:  EM64L-G09RevA.01  8-May-2009

 -------------
 # mp2/cc-pVTZ
 -------------

 ---------------------------------
 methylethylsulfide_a_single_point
 ---------------------------------
 Symbolic Z-matrix:
 Charge =  0 Multiplicity = 1

                         Standard orientation:
 ---------------------------------------------------------------------
 Center     Atomic      Atomic             Coordinates (Angstroms)
 Number     Number       Type             X           Y           Z
 ---------------------------------------------------------------------
      1          6           0       -2.188123   -0.023541    0.000007
      2          6           0       -0.809675    0.637772   -0.000010
      3         16           0        0.511764   -0.639467   -0.000003
      4          6           0        1.984545    0.440240    0.000007
      5          1           0       -2.972250    0.741270    0.000002
      6          1           0       -2.326930   -0.650699   -0.886413
      7          1           0       -0.687324    1.269246   -0.887156
      8          1           0       -2.326901   -0.650672    0.886447
      9          1           0       -0.687324    1.269255    0.887129
     10          1           0        2.860729   -0.212409   -0.000007
     11          1           0        2.015649    1.069337   -0.894567
     12          1           0        2.015647    1.069323    0.894591
 ---------------------------------------------------------------------

 SCF Done:  E(RHF) =  -515.849534020     A.U. after   11 cycles
 E2 =    -0.7134947449D+00 EUMP2 =    -0.51656302876511D+03

 The electronic state is 1-A.
 Alpha  occ. eigenvalues --  -91.93852 -11.25701 -11.25093 -11.22447  -8.93935
 Alpha  occ. eigenvalues --   -6.62058  -6.61965  -6.61871  -1.07007  -0.99413
 Alpha  occ. eigenvalues --   -0.87530  -0.78914  -0.62605  -0.59369  -0.58086
 Alpha  occ. eigenvalues --   -0.57776  -0.52630  -0.50540  -0.47040  -0.42427
 Alpha  occ. eigenvalues --   -0.33356
 Alpha virt. eigenvalues --    0.13797   0.13988   0.18553   0.18717   0.21007
 Alpha virt. eigenvalues --    0.21443   0.22798   0.23428   0.24281   0.24578
 Alpha virt. eigenvalues --    0.32286   0.35863   0.37740   0.39605   0.40274

 Mulliken atomic charges:
              1
     1  C   -0.288470
     2  C   -0.135611
     3  S   -0.132557
     4  C   -0.259488
     5  H    0.099325
     6  H    0.101833
     7  H    0.099332
     8  H    0.101833
     9  H    0.099332
    10  H    0.113132
    11  H    0.100669
    12  H    0.100670
 Sum of Mulliken atomic charges =   0.00000

 Dipole moment (field-independent basis, Debye):
    X=             -0.0449    Y=              1.7404    Z=              0.0000  Tot=              1.7410
 Quadrupole moment (field-independent basis, Debye-Ang):
   XX=            -30.6743   YY=            -35.3002   ZZ=            -35.3398
   XY=              0.4693   XZ=              0.0000   YZ=              0.0000

 Normal termination of Gaussian 09 at Tue Mar 15 23:17:15 2016.
