 Gaussian 09, Revision A.01,
 Gaussian 09:  EM64L-G09RevA.01  8-May-2009

 -------------
 # mp2/cc-pVTZ
 -------------

 ---------------------------------
 methylethylsulfide_g_single_point
 ---------------------------------
 Symbolic Z-matrix:
 Charge =  0 Multiplicity = 1

                         Standard orientation:
 ---------------------------------------------------------------------
 Center     Atomic      Atomic             Coordinates (Angstroms)
 Number     Number       Type             X           Y           Z
 ---------------------------------------------------------------------
      1          6           0        1.852427    0.557402   -0.264314
      2          6           0        0.960397   -0.419000    0.502621
      3         16           0       -0.707353   -0.685798   -0.220604
      4          6           0       -1.501182    0.921932    0.134648
      5          1           0        2.837578    0.624991    0.213441
      6          1           0        1.993424    0.229335   -1.298542
      7          1           0        1.409527   -1.417395    0.515739
      8          1           0        1.426799    1.565735   -0.284304
      9          1           0        0.839517   -0.108440    1.546900
     10          1           0       -2.533944    0.844408   -0.213332
     11          1           0       -1.508359    1.127591    1.209294
     12          1           0       -1.016745    1.744546   -0.397261
 ---------------------------------------------------------------------

 SCF Done:  E(RHF) =  -515.848899517     A.U. after   12 cycles
 E2 =    -0.7141495424D+00 EUMP2 =    -0.51656304905952D+03

 The electronic state is 1-A.
 Alpha  occ. eigenvalues --  -91.93923 -11.25777 -11.25078 -11.22382  -8.93992
 Alpha  occ. eigenvalues --   -6.62117  -6.62019  -6.61931  -1.07006  -0.99099
 Alpha  occ. eigenvalues --   -0.88489  -0.78419  -0.62625  -0.60167  -0.58152
 Alpha  occ. eigenvalues --   -0.55810  -0.53590  -0.51180  -0.47058  -0.42149
 Alpha  occ. eigenvalues --   -0.33432
 Alpha virt. eigenvalues --    0.13514   0.14962   0.17424   0.19155   0.20423
 Alpha virt. eigenvalues --    0.21153   0.22611   0.23027   0.25581   0.26455
 Alpha virt. eigenvalues --    0.32370   0.35419   0.37212   0.39134   0.39412

 Mulliken atomic charges:
              1
     1  C   -0.265938
     2  C   -0.167415
     3  S   -0.135999
     4  C   -0.261214
     5  H    0.100019
     6  H    0.102241
     7  H    0.113699
     8  H    0.089455
     9  H    0.105653
    10  H    0.116732
    11  H    0.100392
    12  H    0.102375
 Sum of Mulliken atomic charges =   0.00000

 Dipole moment (field-independent basis, Debye):
    X=              0.7676    Y=              1.3976    Z=              0.7802  Tot=              1.7751
 Quadrupole moment (field-independent basis, Debye-Ang):
   XX=            -32.4356   YY=            -34.8767   ZZ=            -35.2725
   XY=             -2.7876   XZ=              0.3156   YZ=             -0.0932

 Normal termination of Gaussian 09 at Tue Mar 15 23:20:06 2016.
