 Gaussian 09, Revision A.01,
 Gaussian 09:  EM64L-G09RevA.01  8-May-2009

 -------------
 # mp2/cc-pVTZ
 -------------

 -----------------------------------
 s-methylthianium_ax_sp_single_point
 -----------------------------------
 Symbolic Z-matrix:
 Charge =  1 Multiplicity = 1

                         Standard orientation:
 ---------------------------------------------------------------------
 Center     Atomic      Atomic             Coordinates (Angstroms)
 Number     Number       Type             X           Y           Z
 ---------------------------------------------------------------------
      1          6           0        1.185630   -1.281653    0.379121
      2          6           0        2.000972    0.000017    0.149282
      3          6           0        1.185594    1.281663    0.379138
      4          6           0       -0.004815    1.430143   -0.568932
      5         16           0       -1.179349   -0.000003   -0.561622
      6          6           0       -0.004796   -1.430143   -0.568924
      7          6           0       -1.868273   -0.000014    1.126813
      8          1           0        0.851997    1.341676    1.421844
      9          1           0        1.818149    2.161713    0.215131
     10          1           0        0.307722    1.493193   -1.616512
     11          1           0       -0.625607    2.304351   -0.352886
     12          1           0        2.859773    0.000013    0.826740
     13          1           0        2.411585    0.000029   -0.869263
     14          1           0        0.307723   -1.493218   -1.616508
     15          1           0        1.818198   -2.161686    0.215074
     16          1           0       -0.625576   -2.304350   -0.352837
     17          1           0        0.852047   -1.341709    1.421829
     18          1           0       -1.084878   -0.000077    1.883560
     19          1           0       -2.493667    0.890497    1.215431
     20          1           0       -2.493758   -0.890465    1.215363
 ---------------------------------------------------------------------

 SCF Done:  E(RHF) =  -632.182950042     A.U. after   11 cycles
 E2 =    -0.1207703303D+01 EUMP2 =    -0.63339065334464D+03

 The electronic state is 1-A.
 Alpha  occ. eigenvalues --  -92.21896 -11.44920 -11.44920 -11.44493 -11.39408
 Alpha  occ. eigenvalues --  -11.39408 -11.37948  -9.21592  -6.89677  -6.89665
 Alpha  occ. eigenvalues --   -6.89566  -1.32403  -1.22542  -1.20180  -1.13288
 Alpha  occ. eigenvalues --   -1.02549  -1.01862  -0.92736  -0.82692  -0.81001
 Alpha  occ. eigenvalues --   -0.80260  -0.77003  -0.76285  -0.75857  -0.72214
 Alpha  occ. eigenvalues --   -0.71058  -0.68617  -0.67371  -0.66538  -0.62889
 Alpha  occ. eigenvalues --   -0.61547  -0.59379
 Alpha virt. eigenvalues --   -0.02447  -0.01550  -0.01467   0.01819   0.02202
 Alpha virt. eigenvalues --    0.02297   0.03316   0.04033   0.05531   0.07688
 Alpha virt. eigenvalues --    0.08322   0.08873   0.09863   0.09888   0.10598

 Mulliken atomic charges:
              1
     1  C   -0.233835
     2  C   -0.205519
     3  C   -0.233834
     4  C   -0.213776
     5  S    0.290062
     6  C   -0.213776
     7  C   -0.265864
     8  H    0.135666
     9  H    0.169359
    10  H    0.172942
    11  H    0.181900
    12  H    0.157355
    13  H    0.126839
    14  H    0.172944
    15  H    0.169358
    16  H    0.181896
    17  H    0.135667
    18  H    0.145932
    19  H    0.163341
    20  H    0.163343
 Sum of Mulliken atomic charges =   1.00000

 Dipole moment (field-independent basis, Debye):
    X=             -1.4838    Y=              0.0000    Z=              0.3395  Tot=              1.5221
 Quadrupole moment (field-independent basis, Debye-Ang):
   XX=            -39.3253   YY=            -40.2513   ZZ=            -45.0771
   XY=             -0.0001   XZ=             -3.2164   YZ=              0.0000

 Normal termination of Gaussian 09 at Wed Apr 27 03:25:08 2016.
