 Gaussian 09, Revision A.01,
 Gaussian 09:  EM64L-G09RevA.01  8-May-2009

 -------------
 # mp2/cc-pVTZ
 -------------

 -----------------------------------
 s_methylthianium_eq_sp_single_point
 -----------------------------------
 Symbolic Z-matrix:
 Charge =  1 Multiplicity = 1

                         Standard orientation:
 ---------------------------------------------------------------------
 Center     Atomic      Atomic             Coordinates (Angstroms)
 Number     Number       Type             X           Y           Z
 ---------------------------------------------------------------------
      1          6           0       -1.431422   -1.284195   -0.163826
      2          6           0       -2.088909   -0.000017    0.367548
      3          6           0       -1.431465    1.284184   -0.163829
      4          6           0        0.051953    1.408715    0.206953
      5         16           0        0.989470    0.000012   -0.528482
      6          6           0        0.051961   -1.408701    0.206936
      7          6           0        2.561661   -0.000002    0.392123
      8          1           0       -1.548058    1.354045   -1.252253
      9          1           0       -1.931708    2.163724    0.256222
     10          1           0        0.213241    1.378184    1.289368
     11          1           0        0.509638    2.312526   -0.203518
     12          1           0       -3.145282   -0.000036    0.083553
     13          1           0       -2.063393   -0.000027    1.465312
     14          1           0        0.213243   -1.378179    1.289353
     15          1           0       -1.931638   -2.163752    0.256222
     16          1           0        0.509648   -2.312512   -0.203534
     17          1           0       -1.547997   -1.354046   -1.252252
     18          1           0        2.375235   -0.000035    1.467566
     19          1           0        3.116447   -0.891283    0.092096
     20          1           0        3.116439    0.891298    0.092136
 ---------------------------------------------------------------------

 SCF Done:  E(RHF) =  -632.185004704     A.U. after   11 cycles
 E2 =    -0.1206880163D+01 EUMP2 =    -0.63339188486673D+03

 The electronic state is 1-A.
 Alpha  occ. eigenvalues --  -92.21831 -11.44810 -11.44809 -11.44608 -11.39201
 Alpha  occ. eigenvalues --  -11.39201 -11.37709  -9.21557  -6.89644  -6.89629
 Alpha  occ. eigenvalues --   -6.89532  -1.32556  -1.22692  -1.19956  -1.12661
 Alpha  occ. eigenvalues --   -1.02098  -1.01408  -0.93404  -0.82751  -0.80118
 Alpha  occ. eigenvalues --   -0.79169  -0.78677  -0.77529  -0.74626  -0.72520
 Alpha  occ. eigenvalues --   -0.70039  -0.69656  -0.67531  -0.63265  -0.62722
 Alpha  occ. eigenvalues --   -0.61290  -0.60892
 Alpha virt. eigenvalues --   -0.02556  -0.01802  -0.01652   0.01211   0.03059
 Alpha virt. eigenvalues --    0.03215   0.04000   0.05299   0.05788   0.06267
 Alpha virt. eigenvalues --    0.07324   0.08063   0.08448   0.10416   0.11167

 Mulliken atomic charges:
              1
     1  C   -0.220473
     2  C   -0.215504
     3  C   -0.220474
     4  C   -0.201991
     5  S    0.300180
     6  C   -0.201983
     7  C   -0.257022
     8  H    0.141736
     9  H    0.159154
    10  H    0.154059
    11  H    0.180364
    12  H    0.157164
    13  H    0.126694
    14  H    0.154056
    15  H    0.159153
    16  H    0.180364
    17  H    0.141731
    18  H    0.141924
    19  H    0.160434
    20  H    0.160434
 Sum of Mulliken atomic charges =   1.00000

 Dipole moment (field-independent basis, Debye):
    X=              2.4445    Y=              0.0000    Z=              0.9566  Tot=              2.6250
 Quadrupole moment (field-independent basis, Debye-Ang):
   XX=            -33.2957   YY=            -40.5029   ZZ=            -48.3670
   XY=             -0.0001   XZ=              1.4082   YZ=              0.0000

 Normal termination of Gaussian 09 at Wed Apr 27 03:40:13 2016.
