 Gaussian 09, Revision A.01,
 Gaussian 09:  EM64L-G09RevA.01  8-May-2009

 -------------
 # mp2/cc-pVTZ
 -------------

 -------------------------------
 sulfolane_envelope_single_point
 -------------------------------
 Symbolic Z-matrix:
 Charge =  0 Multiplicity = 1

                         Standard orientation:
 ---------------------------------------------------------------------
 Center     Atomic      Atomic             Coordinates (Angstroms)
 Number     Number       Type             X           Y           Z
 ---------------------------------------------------------------------
      1          6           0       -1.766837   -0.786841    0.038249
      2          6           0       -0.394132   -1.320404   -0.402294
      3         16           0        0.782454    0.000003    0.048489
      4          6           0       -0.394158    1.320621   -0.401656
      5          6           0       -1.766988    0.786757    0.038216
      6          8           0        1.967384    0.000229   -0.828152
      7          8           0        0.940195   -0.000390    1.517621
      8          1           0       -0.082170   -2.235995    0.103409
      9          1           0       -0.306101   -1.451849   -1.484200
     10          1           0       -0.305893    1.452792   -1.483453
     11          1           0       -0.082324    2.235891    0.104706
     12          1           0       -2.542645    1.174175   -0.627864
     13          1           0       -1.993055    1.147792    1.043971
     14          1           0       -2.542775   -1.174462   -0.627386
     15          1           0       -1.992250   -1.147894    1.044144
 ---------------------------------------------------------------------

 SCF Done:  E(RHF) =  -703.459886046     A.U. after   13 cycles
 E2 =    -0.1350008425D+01 EUMP2 =    -0.70480989447116D+03

 The electronic state is 1-A.
 Alpha  occ. eigenvalues --  -92.17141 -20.53995 -20.53740 -11.28092 -11.28090
 Alpha  occ. eigenvalues --  -11.26440 -11.26389  -9.14219  -6.82666  -6.82598
 Alpha  occ. eigenvalues --   -6.82591  -1.42497  -1.31734  -1.13911  -1.02519
 Alpha  occ. eigenvalues --   -0.97286  -0.82804  -0.80232  -0.68988  -0.68501
 Alpha  occ. eigenvalues --   -0.65652  -0.63000  -0.60387  -0.59762  -0.56397
 Alpha  occ. eigenvalues --   -0.53978  -0.52220  -0.50815  -0.47974  -0.47547
 Alpha  occ. eigenvalues --   -0.46043  -0.41747
 Alpha virt. eigenvalues --    0.11565   0.14818   0.15944   0.16025   0.19209
 Alpha virt. eigenvalues --    0.19394   0.19866   0.21876   0.23513   0.24069
 Alpha virt. eigenvalues --    0.25351   0.28003   0.30067   0.33177   0.35473

 Mulliken atomic charges:
              1
     1  C   -0.208500
     2  C   -0.213983
     3  S    0.962178
     4  C   -0.213983
     5  C   -0.208496
     6  O   -0.564706
     7  O   -0.581630
     8  H    0.139093
     9  H    0.132156
    10  H    0.132170
    11  H    0.139095
    12  H    0.120697
    13  H    0.122594
    14  H    0.120717
    15  H    0.122599
 Sum of Mulliken atomic charges =   0.00000

 Dipole moment (field-independent basis, Debye):
    X=             -5.5436    Y=              0.0005    Z=             -1.9305  Tot=              5.8702
 Quadrupole moment (field-independent basis, Debye-Ang):
   XX=            -55.7496   YY=            -43.4912   ZZ=            -54.1964
   XY=             -0.0002   XZ=              0.9358   YZ=              0.0028

 Normal termination of Gaussian 09 at Tue Mar 15 23:34:52 2016.
