 Gaussian 09, Revision A.01,
 Gaussian 09:  EM64L-G09RevA.01  8-May-2009

 -------------
 # mp2/cc-pVTZ
 -------------

 --------------------------------
 sulfolane_halfchair_single_point
 --------------------------------
 Symbolic Z-matrix:
 Charge =  0 Multiplicity = 1

                         Standard orientation:
 ---------------------------------------------------------------------
 Center     Atomic      Atomic             Coordinates (Angstroms)
 Number     Number       Type             X           Y           Z
 ---------------------------------------------------------------------
      1          6           0       -1.786605    0.759339   -0.143554
      2          6           0       -0.451347    1.315785    0.363422
      3         16           0        0.788306    0.000020    0.000016
      4          6           0       -0.451275   -1.315705   -0.363676
      5          6           0       -1.786490   -0.759421    0.143565
      6          8           0        1.522519   -0.334648    1.236601
      7          8           0        1.522894    0.334601   -1.236368
      8          1           0       -0.114457    2.225783   -0.135466
      9          1           0       -0.438828    1.452256    1.447489
     10          1           0       -0.114311   -2.225833    0.134927
     11          1           0       -0.438845   -1.451871   -1.447785
     12          1           0       -1.879803   -0.934585    1.221538
     13          1           0       -2.627721   -1.260464   -0.344696
     14          1           0       -2.627799    1.260306    0.344852
     15          1           0       -1.880147    0.934477   -1.221511
 ---------------------------------------------------------------------

 SCF Done:  E(RHF) =  -703.462187662     A.U. after   13 cycles
 E2 =    -0.1349980229D+01 EUMP2 =    -0.70481216789106D+03

 The electronic state is 1-A.
 Alpha  occ. eigenvalues --  -92.17111 -20.53677 -20.53675 -11.28069 -11.28067
 Alpha  occ. eigenvalues --  -11.26699 -11.26642  -9.14176  -6.82617  -6.82551
 Alpha  occ. eigenvalues --   -6.82549  -1.42252  -1.31541  -1.14520  -1.02445
 Alpha  occ. eigenvalues --   -0.96860  -0.83511  -0.80049  -0.69559  -0.68577
 Alpha  occ. eigenvalues --   -0.63547  -0.63222  -0.61283  -0.60799  -0.55849
 Alpha  occ. eigenvalues --   -0.54063  -0.52578  -0.51910  -0.47803  -0.47133
 Alpha  occ. eigenvalues --   -0.45787  -0.41587
 Alpha virt. eigenvalues --    0.11747   0.14413   0.15778   0.16641   0.18915
 Alpha virt. eigenvalues --    0.19747   0.20295   0.20939   0.22013   0.23049
 Alpha virt. eigenvalues --    0.24752   0.25467   0.31873   0.32142   0.34887

 Mulliken atomic charges:
              1
     1  C   -0.213181
     2  C   -0.207564
     3  S    0.951152
     4  C   -0.207564
     5  C   -0.213164
     6  O   -0.573618
     7  O   -0.573609
     8  H    0.141298
     9  H    0.136662
    10  H    0.141299
    11  H    0.136656
    12  H    0.116118
    13  H    0.124697
    14  H    0.124706
    15  H    0.116111
 Sum of Mulliken atomic charges =   0.00000

 Dipole moment (field-independent basis, Debye):
    X=             -6.0198    Y=              0.0002    Z=             -0.0006  Tot=              6.0198
 Quadrupole moment (field-independent basis, Debye-Ang):
   XX=            -55.2111   YY=            -44.1860   ZZ=            -54.4857
   XY=             -0.0003   XZ=              0.0003   YZ=              2.9779

 Normal termination of Gaussian 09 at Tue Mar 15 23:44:05 2016.
