 Gaussian 09, Revision A.01,
 Gaussian 09:  EM64L-G09RevA.01  8-May-2009

 -------------
 # mp2/cc-pVTZ
 -------------

 --------------------------------
 thiacyclohexane_twb_single_point
 --------------------------------
 Symbolic Z-matrix:
 Charge =  0 Multiplicity = 1

                         Standard orientation:
 ---------------------------------------------------------------------
 Center     Atomic      Atomic             Coordinates (Angstroms)
 Number     Number       Type             X           Y           Z
 ---------------------------------------------------------------------
      1          6           0        0.359446   -1.362199   -0.371767
      2         16           0        1.553518   -0.000023   -0.000014
      3          6           0        0.359507    1.362168    0.371796
      4          6           0       -0.937240    1.222439   -0.429152
      5          6           0       -1.780903    0.000028   -0.000029
      6          6           0       -0.937300   -1.222397    0.429173
      7          1           0        0.882509    2.287715    0.115933
      8          1           0        0.153350    1.383104    1.447630
      9          1           0       -1.533026    2.136703   -0.313679
     10          1           0       -0.681604    1.152336   -1.493202
     11          1           0       -2.439698   -0.279818   -0.831346
     12          1           0       -2.439772    0.279876    0.831229
     13          1           0       -1.533118   -2.136643    0.313742
     14          1           0       -0.681697   -1.152240    1.493228
     15          1           0        0.153294   -1.383161   -1.447600
     16          1           0        0.882421   -2.287741   -0.115840
 ---------------------------------------------------------------------

 SCF Done:  E(RHF) =  -592.772688251     A.U. after   13 cycles
 E2 =    -0.1040474466D+01 EUMP2 =    -0.59381316271728D+03

 The electronic state is 1-A.
 Alpha  occ. eigenvalues --  -91.93338 -11.25346 -11.25345 -11.23082 -11.23077
 Alpha  occ. eigenvalues --  -11.22800  -8.93410  -6.61530  -6.61437  -6.61351
 Alpha  occ. eigenvalues --   -1.11190  -1.01520  -0.99613  -0.85044  -0.83518
 Alpha  occ. eigenvalues --   -0.73731  -0.65502  -0.64134  -0.57946  -0.57124
 Alpha  occ. eigenvalues --   -0.54659  -0.51962  -0.51133  -0.49254  -0.46771
 Alpha  occ. eigenvalues --   -0.43903  -0.40529  -0.32862
 Alpha virt. eigenvalues --    0.13034   0.15471   0.16316   0.17581   0.17644
 Alpha virt. eigenvalues --    0.19311   0.21780   0.22204   0.22495   0.23087
 Alpha virt. eigenvalues --    0.24310   0.26524   0.31947   0.32494   0.34741

 Mulliken atomic charges:
              1
     1  C   -0.161006
     2  S   -0.179936
     3  C   -0.161006
     4  C   -0.192481
     5  C   -0.207031
     6  C   -0.192483
     7  H    0.122447
     8  H    0.107254
     9  H    0.113545
    10  H    0.101391
    11  H    0.102330
    12  H    0.102330
    13  H    0.113549
    14  H    0.101390
    15  H    0.107258
    16  H    0.122447
 Sum of Mulliken atomic charges =   0.00000

 Dipole moment (field-independent basis, Debye):
    X=             -2.1347    Y=              0.0000    Z=              0.0001  Tot=              2.1347
 Quadrupole moment (field-independent basis, Debye-Ang):
   XX=            -50.4783   YY=            -42.6033   ZZ=            -46.6953
   XY=              0.0002   XZ=              0.0000   YZ=              1.0734

 Normal termination of Gaussian 09 at Wed Mar 16 00:00:55 2016.
