 Gaussian 09, Revision A.01,
 Gaussian 09:  EM64L-G09RevA.01  8-May-2009

 -------------
 # mp2/cc-pVTZ
 -------------

 -------------------------------
 thiacyclohexane_ch_single_point
 -------------------------------
 Symbolic Z-matrix:
 Charge =  0 Multiplicity = 1

                         Standard orientation:
 ---------------------------------------------------------------------
 Center     Atomic      Atomic             Coordinates (Angstroms)
 Number     Number       Type             X           Y           Z
 ---------------------------------------------------------------------
      1          6           0        0.992174    1.285260   -0.255287
      2          6           0        1.723883   -0.000009    0.166678
      3          6           0        0.992149   -1.285256   -0.255294
      4          6           0       -0.421704   -1.385849    0.326204
      5         16           0       -1.509813   -0.000004   -0.194911
      6          6           0       -0.421724    1.385862    0.326197
      7          1           0        0.933546   -1.333682   -1.350046
      8          1           0        1.569794   -2.159450    0.075084
      9          1           0       -0.386995   -1.417228    1.422462
     10          1           0       -0.924175   -2.296442   -0.013435
     11          1           0        2.734152   -0.000011   -0.260158
     12          1           0        1.849831   -0.000003    1.259633
     13          1           0       -0.387044    1.417265    1.422453
     14          1           0        1.569824    2.159432    0.075136
     15          1           0        0.933594    1.333705   -1.350038
     16          1           0       -0.924180    2.296441   -0.013500
 ---------------------------------------------------------------------

 SCF Done:  E(RHF) =  -592.781203523     A.U. after   12 cycles
 E2 =    -0.1039935310D+01 EUMP2 =    -0.59382113883308D+03

 The electronic state is 1-A.
 Alpha  occ. eigenvalues --  -91.93491 -11.25339 -11.25339 -11.22859 -11.22850
 Alpha  occ. eigenvalues --  -11.22662  -8.93583  -6.61702  -6.61611  -6.61523
 Alpha  occ. eigenvalues --   -1.11206  -1.01688  -1.00093  -0.84079  -0.83547
 Alpha  occ. eigenvalues --   -0.75295  -0.64280  -0.61288  -0.60976  -0.57659
 Alpha  occ. eigenvalues --   -0.54528  -0.52380  -0.49792  -0.49406  -0.47249
 Alpha  occ. eigenvalues --   -0.43449  -0.41160  -0.33081
 Alpha virt. eigenvalues --    0.13671   0.15164   0.15951   0.17715   0.17988
 Alpha virt. eigenvalues --    0.20422   0.20810   0.21720   0.23218   0.23430
 Alpha virt. eigenvalues --    0.24490   0.26421   0.28294   0.33513   0.35784

 Mulliken atomic charges:
              1
     1  C   -0.174887
     2  C   -0.202338
     3  C   -0.174878
     4  C   -0.175261
     5  S   -0.163481
     6  C   -0.175264
     7  H    0.098125
     8  H    0.107920
     9  H    0.105628
    10  H    0.121182
    11  H    0.110858
    12  H    0.089534
    13  H    0.105633
    14  H    0.107921
    15  H    0.098128
    16  H    0.121181
 Sum of Mulliken atomic charges =   0.00000

 Dipole moment (field-independent basis, Debye):
    X=              1.8868    Y=              0.0000    Z=              0.6503  Tot=              1.9957
 Quadrupole moment (field-independent basis, Debye-Ang):
   XX=            -50.2056   YY=            -42.5707   ZZ=            -46.8273
   XY=              0.0000   XZ=             -0.3888   YZ=              0.0000

 Normal termination of Gaussian 09 at Tue Mar 15 23:52:17 2016.
