 Gaussian 09, Revision A.01,
 Gaussian 09:  EM64L-G09RevA.01  8-May-2009

 -----------------------
 # opt b3lyp/6-31+g(d,p)
 -----------------------

 -----------------------
 2-(1-Ad)-N-Me-pip-trans
 -----------------------
 Symbolic Z-matrix:
 Charge =  0 Multiplicity = 1

 SCF Done:  E(RB3LYP) =  -680.762825499     A.U. after   15 cycles
 SCF Done:  E(RB3LYP) =  -680.771219169     A.U. after   12 cycles
 SCF Done:  E(RB3LYP) =  -680.771392304     A.U. after   12 cycles
 SCF Done:  E(RB3LYP) =  -680.770560838     A.U. after   12 cycles
 SCF Done:  E(RB3LYP) =  -680.771510021     A.U. after   12 cycles
 SCF Done:  E(RB3LYP) =  -680.771398732     A.U. after   12 cycles
 SCF Done:  E(RB3LYP) =  -680.771650659     A.U. after   12 cycles
 SCF Done:  E(RB3LYP) =  -680.771654391     A.U. after   10 cycles
 SCF Done:  E(RB3LYP) =  -680.771655243     A.U. after   10 cycles
 SCF Done:  E(RB3LYP) =  -680.771655422     A.U. after    8 cycles
 Optimization completed.
    -- Stationary point found.

                         Standard orientation:
 ---------------------------------------------------------------------
 Center     Atomic      Atomic             Coordinates (Angstroms)
 Number     Number       Type             X           Y           Z
 ---------------------------------------------------------------------
      1          6           0       -2.514947    0.948169   -0.936552
      2          6           0       -3.120499   -0.440702   -1.203770
      3          6           0       -2.464323   -1.454360   -0.249968
      4          6           0       -0.991038    0.897863   -1.175411
      5          6           0       -0.934396   -1.477545   -0.461411
      6          6           0       -0.283985   -0.083395   -0.188617
      7          6           0       -2.793730    1.364279    0.523286
      8          6           0       -0.634495    0.295104    1.275530
      9          6           0       -2.164350    0.334729    1.485803
     10          6           0       -2.766273   -1.056949    1.208735
     11          6           0        1.282456   -0.131178   -0.442669
     12          6           0        1.883956   -1.496139   -0.026075
     13          6           0        3.394649   -1.612676   -0.241913
     14          6           0        4.108191   -0.461678    0.457537
     15          7           0        2.055373    0.956088    0.225447
     16          6           0        3.505684    0.853940   -0.017191
     17          1           0       -2.957560    1.684620   -1.620482
     18          1           0       -2.947402   -0.733383   -2.248399
     19          1           0       -4.208272   -0.423221   -1.050727
     20          1           0       -2.859203   -2.459855   -0.447867
     21          1           0       -0.592242    1.909685   -1.097313
     22          1           0       -0.790489    0.566216   -2.204080
     23          1           0       -0.706561   -1.800620   -1.487206
     24          1           0       -0.517368   -2.231722    0.212645
     25          1           0       -3.876629    1.430257    0.695805
     26          1           0       -2.379694    2.363594    0.716672
     27          1           0       -0.201786    1.262752    1.543077
     28          1           0       -0.183780   -0.435424    1.959638
     29          1           0       -2.373050    0.627592    2.523346
     30          1           0       -3.851005   -1.045562    1.381955
     31          1           0       -2.339046   -1.796814    1.899310
     32          1           0        1.416704   -0.039528   -1.543072
     33          1           0        1.394323   -2.288253   -0.595533
     34          1           0        1.661401   -1.673205    1.034401
     35          1           0        3.617916   -1.579474   -1.318466
     36          1           0        3.748306   -2.585019    0.122808
     37          1           0        5.184504   -0.466821    0.245173
     38          1           0        3.985963   -0.546433    1.545195
     39          1           0        3.981624    1.690384    0.505757
     40          1           0        3.732558    0.983509   -1.097593
     41          6           0        1.656397    2.320539   -0.117576
     42          1           0        0.662424    2.559494    0.255834
     43          1           0        2.352703    3.016912    0.359609
     44          1           0        1.678270    2.517703   -1.207052
 ---------------------------------------------------------------------

 The electronic state is 1-A.
 Alpha  occ. eigenvalues --  -14.32804 -10.21478 -10.20465 -10.19949 -10.19631
 Alpha  occ. eigenvalues --  -10.18321 -10.18284 -10.18201 -10.17991 -10.17855
 Alpha  occ. eigenvalues --  -10.17695 -10.17584 -10.17543 -10.17465 -10.17460
 Alpha  occ. eigenvalues --  -10.17330 -10.17103  -0.91988  -0.86489  -0.79675
 Alpha  occ. eigenvalues --   -0.78281  -0.76443  -0.76323  -0.72939  -0.68958
 Alpha  occ. eigenvalues --   -0.66456  -0.66437  -0.62445  -0.61270  -0.58163
 Alpha  occ. eigenvalues --   -0.57671  -0.56631  -0.54007  -0.51575  -0.48030
 Alpha  occ. eigenvalues --   -0.46519  -0.45546  -0.45152  -0.44657  -0.44528
 Alpha  occ. eigenvalues --   -0.43914  -0.43257  -0.42277  -0.40648  -0.40138
 Alpha  occ. eigenvalues --   -0.39623  -0.39395  -0.38660  -0.38441  -0.38185
 Alpha  occ. eigenvalues --   -0.37633  -0.36108  -0.34853  -0.32899  -0.32647
 Alpha  occ. eigenvalues --   -0.32582  -0.32268  -0.32090  -0.31781  -0.31266
 Alpha  occ. eigenvalues --   -0.30556  -0.27691  -0.27468  -0.27266  -0.21390
 Alpha virt. eigenvalues --   -0.00563   0.00666   0.01057   0.01497   0.02387
 Alpha virt. eigenvalues --    0.02666   0.02807   0.03364   0.03618   0.04566
 Alpha virt. eigenvalues --    0.04765   0.05159   0.05715   0.05983   0.06400

 Mulliken atomic charges:
              1
     1  C   -0.013258
     2  C   -0.390106
     3  C   -0.027975
     4  C   -0.227113
     5  C   -0.565507
     6  C   -0.763745
     7  C   -0.371852
     8  C   -0.139224
     9  C   -0.061772
    10  C   -0.389743
    11  C    0.365633
    12  C   -0.037433
    13  C   -0.332880
    14  C   -0.306770
    15  N    0.091815
    16  C   -0.137164
    17  H    0.114768
    18  H    0.129123
    19  H    0.129355
    20  H    0.115303
    21  H    0.129839
    22  H    0.138030
    23  H    0.140078
    24  H    0.145986
    25  H    0.130456
    26  H    0.128248
    27  H    0.141725
    28  H    0.141755
    29  H    0.115150
    30  H    0.129135
    31  H    0.130196
    32  H    0.103438
    33  H    0.141138
    34  H    0.148438
    35  H    0.136929
    36  H    0.133279
    37  H    0.131740
    38  H    0.145284
    39  H    0.120888
    40  H    0.123045
    41  C   -0.227035
    42  H    0.137898
    43  H    0.125153
    44  H    0.127754
 Sum of Mulliken atomic charges =   0.00000

 Dipole moment (field-independent basis, Debye):
    X=              0.0938    Y=             -0.0584    Z=             -0.3479  Tot=              0.3650
 Quadrupole moment (field-independent basis, Debye-Ang):
   XX=           -108.1364   YY=           -107.7414   ZZ=           -111.0109
   XY=             -0.0014   XZ=             -0.4515   YZ=             -0.0884

 Normal termination of Gaussian 09 at Sun Mar 27 04:16:38 2016.
