 Gaussian 09, Revision A.01,
 Gaussian 09:  EM64L-G09RevA.01  8-May-2009

 -----------------------
 # opt b3lyp/6-31+g(d,p)
 -----------------------

 ------------------------
 2-(1-Ad)N-Meax-pip-trans
 ------------------------
 Symbolic Z-matrix:
 Charge =  0 Multiplicity = 1

 SCF Done:  E(RB3LYP) =  -680.766388296     A.U. after   13 cycles
 SCF Done:  E(RB3LYP) =  -680.773349302     A.U. after   12 cycles
 SCF Done:  E(RB3LYP) =  -680.772390967     A.U. after   14 cycles
 SCF Done:  E(RB3LYP) =  -680.773626275     A.U. after   14 cycles
 SCF Done:  E(RB3LYP) =  -680.773639564     A.U. after   11 cycles
 SCF Done:  E(RB3LYP) =  -680.773770043     A.U. after   11 cycles
 SCF Done:  E(RB3LYP) =  -680.773772071     A.U. after   10 cycles
 SCF Done:  E(RB3LYP) =  -680.773775773     A.U. after    9 cycles
 Optimization completed.
    -- Stationary point found.

                         Standard orientation:
 ---------------------------------------------------------------------
 Center     Atomic      Atomic             Coordinates (Angstroms)
 Number     Number       Type             X           Y           Z
 ---------------------------------------------------------------------
      1          6           0       -2.386921    1.188586   -0.827085
      2          6           0       -3.022331   -0.088223   -1.412472
      3          6           0       -2.527325   -1.311435   -0.615383
      4          6           0       -0.849902    1.097660   -0.920818
      5          6           0       -0.989310   -1.391476   -0.701535
      6          6           0       -0.311927   -0.114706   -0.115748
      7          6           0       -2.802858    1.335849    0.651546
      8          6           0       -0.778116    0.008676    1.362986
      9          6           0       -2.317666    0.106388    1.447791
     10          6           0       -2.951381   -1.169690    0.860093
     11          6           0        1.234213   -0.254291   -0.310805
     12          6           0        1.925030   -1.294778    0.603868
     13          6           0        3.362210   -1.563565    0.117977
     14          6           0        4.156057   -0.256599   -0.037404
     15          7           0        1.998180    1.019404   -0.347847
     16          6           0        3.352206    0.765739   -0.862732
     17          1           0       -2.729765    2.064127   -1.394337
     18          1           0       -2.751340   -0.192828   -2.471934
     19          1           0       -4.118130   -0.024194   -1.366903
     20          1           0       -2.957935   -2.228915   -1.038328
     21          1           0       -0.399939    2.027045   -0.558197
     22          1           0       -0.539629    1.000970   -1.970090
     23          1           0       -0.686040   -1.513193   -1.750769
     24          1           0       -0.643673   -2.284813   -0.166187
     25          1           0       -3.894490    1.430001    0.731266
     26          1           0       -2.371825    2.253511    1.074959
     27          1           0       -0.337806    0.888704    1.842687
     28          1           0       -0.437850   -0.864273    1.934505
     29          1           0       -2.610100    0.210923    2.501196
     30          1           0       -4.046150   -1.121132    0.937241
     31          1           0       -2.629054   -2.049854    1.433377
     32          1           0        1.337504   -0.635266   -1.338866
     33          1           0        1.360556   -2.233749    0.617723
     34          1           0        1.948550   -0.931844    1.639074
     35          1           0        3.316765   -2.073583   -0.855869
     36          1           0        3.876790   -2.248048    0.803697
     37          1           0        5.122939   -0.446612   -0.521379
     38          1           0        4.379724    0.161362    0.953466
     39          1           0        3.883916    1.722917   -0.919472
     40          1           0        3.251740    0.395804   -1.893056
     41          6           0        2.013152    1.830100    0.868549
     42          1           0        2.693655    2.673569    0.711838
     43          1           0        1.023288    2.248223    1.062933
     44          1           0        2.340255    1.305927    1.783387
 ---------------------------------------------------------------------

 The electronic state is 1-A.
 Alpha  occ. eigenvalues --  -14.32119 -10.20870 -10.20364 -10.19947 -10.19247
 Alpha  occ. eigenvalues --  -10.18307 -10.18306 -10.18226 -10.18034 -10.17930
 Alpha  occ. eigenvalues --  -10.17765 -10.17560 -10.17515 -10.17440 -10.17433
 Alpha  occ. eigenvalues --  -10.17375 -10.16871  -0.91869  -0.86437  -0.78979
 Alpha  occ. eigenvalues --   -0.78077  -0.76385  -0.76240  -0.72828  -0.69680
 Alpha  occ. eigenvalues --   -0.66368  -0.66279  -0.62261  -0.61281  -0.58080
 Alpha  occ. eigenvalues --   -0.57630  -0.56580  -0.54212  -0.51501  -0.47626
 Alpha  occ. eigenvalues --   -0.46866  -0.45393  -0.45034  -0.44587  -0.44311
 Alpha  occ. eigenvalues --   -0.44058  -0.42191  -0.41640  -0.40939  -0.40343
 Alpha  occ. eigenvalues --   -0.39903  -0.39548  -0.38689  -0.38376  -0.37686
 Alpha  occ. eigenvalues --   -0.36894  -0.35662  -0.34411  -0.34209  -0.32604
 Alpha  occ. eigenvalues --   -0.32399  -0.32304  -0.32209  -0.31803  -0.31320
 Alpha  occ. eigenvalues --   -0.31211  -0.27680  -0.27557  -0.27336  -0.20157
 Alpha virt. eigenvalues --   -0.00615   0.00636   0.01171   0.01398   0.02442
 Alpha virt. eigenvalues --    0.02758   0.02786   0.03326   0.03545   0.04506
 Alpha virt. eigenvalues --    0.04836   0.05240   0.05346   0.05797   0.06443

 Mulliken atomic charges:
              1
     1  C    0.089673
     2  C   -0.426770
     3  C    0.008267
     4  C   -0.257943
     5  C   -0.417129
     6  C   -0.465398
     7  C   -0.404302
     8  C   -0.167426
     9  C   -0.008587
    10  C   -0.411537
    11  C   -0.128662
    12  C    0.011905
    13  C   -0.442294
    14  C   -0.196550
    15  N    0.053998
    16  C   -0.063674
    17  H    0.114377
    18  H    0.130320
    19  H    0.128727
    20  H    0.115005
    21  H    0.145848
    22  H    0.137147
    23  H    0.134889
    24  H    0.134217
    25  H    0.129474
    26  H    0.128681
    27  H    0.133022
    28  H    0.142608
    29  H    0.114569
    30  H    0.129909
    31  H    0.129580
    32  H    0.102603
    33  H    0.131833
    34  H    0.140086
    35  H    0.137262
    36  H    0.133961
    37  H    0.130800
    38  H    0.136382
    39  H    0.124664
    40  H    0.131173
    41  C   -0.282686
    42  H    0.129420
    43  H    0.134856
    44  H    0.127701
 Sum of Mulliken atomic charges =   0.00000

 Dipole moment (field-independent basis, Debye):
    X=              0.3817    Y=             -0.4012    Z=              0.4734  Tot=              0.7286
 Quadrupole moment (field-independent basis, Debye-Ang):
   XX=           -107.4822   YY=           -109.6278   ZZ=           -109.6363
   XY=              0.0900   XZ=              0.3656   YZ=              1.5744

 Normal termination of Gaussian 09 at Sun Mar 27 00:55:04 2016.
