 Gaussian 09, Revision A.01,
 Gaussian 09:  EM64L-G09RevA.01  8-May-2009

 -----------------------
 # opt b3lyp/6-31+g(d,p)
 -----------------------

 -----------------------
 3,3-dime-N-me-pyrrol-NI
 -----------------------
 Symbolic Z-matrix:
 Charge =  0 Multiplicity = 1

 SCF Done:  E(RB3LYP) =  -330.540468582     A.U. after   12 cycles
 SCF Done:  E(RB3LYP) =  -330.545481855     A.U. after   11 cycles
 SCF Done:  E(RB3LYP) =  -330.545702384     A.U. after   10 cycles
 SCF Done:  E(RB3LYP) =  -330.546143734     A.U. after   11 cycles
 SCF Done:  E(RB3LYP) =  -330.545708908     A.U. after   11 cycles
 SCF Done:  E(RB3LYP) =  -330.546147301     A.U. after   11 cycles
 SCF Done:  E(RB3LYP) =  -330.547210033     A.U. after   11 cycles
 SCF Done:  E(RB3LYP) =  -330.549233185     A.U. after   11 cycles
 SCF Done:  E(RB3LYP) =  -330.406993740     A.U. after   13 cycles
 SCF Done:  E(RB3LYP) =  -330.549511035     A.U. after   13 cycles
 SCF Done:  E(RB3LYP) =  -330.550572005     A.U. after   13 cycles
 SCF Done:  E(RB3LYP) =  -330.553906765     A.U. after   13 cycles
 SCF Done:  E(RB3LYP) =  -330.553974518     A.U. after    9 cycles
 SCF Done:  E(RB3LYP) =  -330.554077142     A.U. after   10 cycles
 SCF Done:  E(RB3LYP) =  -330.554095057     A.U. after   10 cycles
 SCF Done:  E(RB3LYP) =  -330.554105268     A.U. after   13 cycles
 SCF Done:  E(RB3LYP) =  -330.554108622     A.U. after    9 cycles
 SCF Done:  E(RB3LYP) =  -330.554110046     A.U. after    9 cycles
 SCF Done:  E(RB3LYP) =  -330.554110183     A.U. after    7 cycles
 SCF Done:  E(RB3LYP) =  -330.554110049     A.U. after    8 cycles
 Optimization completed.
    -- Stationary point found.

                         Standard orientation:
 ---------------------------------------------------------------------
 Center     Atomic      Atomic             Coordinates (Angstroms)
 Number     Number       Type             X           Y           Z
 ---------------------------------------------------------------------
      1          6           0        1.037585   -0.082322   -0.016144
      2          6           0        0.471631    1.356305    0.255581
      3          6           0       -1.047952    1.242854    0.036973
      4          6           0       -0.239350   -0.873821   -0.402566
      5          7           0       -1.325852   -0.172902    0.277023
      6          6           0       -2.657727   -0.599266   -0.110063
      7          1           0        0.918732    2.102627   -0.409069
      8          1           0        0.690265    1.662629    1.283651
      9          6           0        1.660845   -0.667187    1.264542
     10          6           0        2.071228   -0.093030   -1.152693
     11          1           0       -1.311965    1.530200   -1.002503
     12          1           0       -1.636410    1.873416    0.712562
     13          1           0       -0.200231   -1.924638   -0.092478
     14          1           0       -0.379519   -0.853927   -1.504254
     15          1           0       -2.791027   -1.661748    0.118364
     16          1           0       -3.407557   -0.035348    0.454626
     17          1           0       -2.856987   -0.450863   -1.190982
     18          1           0        0.914095   -0.730416    2.062855
     19          1           0        2.487030   -0.039195    1.619141
     20          1           0        2.058758   -1.673748    1.086337
     21          1           0        2.968790    0.470114   -0.870836
     22          1           0        1.664785    0.356220   -2.066165
     23          1           0        2.384641   -1.116203   -1.394197
 ---------------------------------------------------------------------

 The electronic state is 1-A.
 Alpha  occ. eigenvalues --  -14.32756 -10.20673 -10.20396 -10.20348 -10.19966
 Alpha  occ. eigenvalues --  -10.18124 -10.17683 -10.17213  -0.93304  -0.80900
 Alpha  occ. eigenvalues --   -0.73855  -0.69749  -0.68453  -0.64382  -0.57695
 Alpha  occ. eigenvalues --   -0.54150  -0.48463  -0.47718  -0.44643  -0.43517
 Alpha  occ. eigenvalues --   -0.42356  -0.41256  -0.40899  -0.38892  -0.36965
 Alpha  occ. eigenvalues --   -0.35694  -0.35294  -0.34923  -0.32158  -0.31630
 Alpha  occ. eigenvalues --   -0.31256  -0.21629
 Alpha virt. eigenvalues --    0.00459   0.01573   0.02541   0.02670   0.04042
 Alpha virt. eigenvalues --    0.04505   0.04647   0.04938   0.05887   0.06526
 Alpha virt. eigenvalues --    0.07039   0.07975   0.08246   0.09095   0.09328

 Mulliken atomic charges:
              1
     1  C    0.262759
     2  C   -0.272311
     3  C   -0.305822
     4  C   -0.323336
     5  N   -0.072883
     6  C   -0.280861
     7  H    0.139511
     8  H    0.147267
     9  C   -0.502010
    10  C   -0.584070
    11  H    0.121531
    12  H    0.131372
    13  H    0.133923
    14  H    0.119116
    15  H    0.137131
    16  H    0.137675
    17  H    0.123934
    18  H    0.166127
    19  H    0.143083
    20  H    0.139504
    21  H    0.146423
    22  H    0.146600
    23  H    0.145339
 Sum of Mulliken atomic charges =   0.00000

 Dipole moment (field-independent basis, Debye):
    X=              0.0227    Y=              0.1646    Z=             -0.4792  Tot=              0.5072
 Quadrupole moment (field-independent basis, Debye-Ang):
   XX=            -52.6705   YY=            -52.2389   ZZ=            -55.5393
   XY=              0.0904   XZ=              0.3151   YZ=              0.6591

 Normal termination of Gaussian 09 at Sun Mar 27 05:29:03 2016.
