 Gaussian 09, Revision A.01,
 Gaussian 09:  EM64L-G09RevA.01  8-May-2009

 -----------------------
 # opt b3lyp/6-31+g(d,p)
 -----------------------

 -----------------------
 3,3-dime-N-me-pyrrol-lp
 -----------------------
 Symbolic Z-matrix:
 Charge =  0 Multiplicity = 1

 SCF Done:  E(RB3LYP) =  -330.550433557     A.U. after   12 cycles
 SCF Done:  E(RB3LYP) =  -330.553818185     A.U. after   10 cycles
 SCF Done:  E(RB3LYP) =  -330.553954424     A.U. after   10 cycles
 SCF Done:  E(RB3LYP) =  -330.554029880     A.U. after   10 cycles
 SCF Done:  E(RB3LYP) =  -330.554083219     A.U. after   10 cycles
 SCF Done:  E(RB3LYP) =  -330.554105776     A.U. after   10 cycles
 SCF Done:  E(RB3LYP) =  -330.554109612     A.U. after    9 cycles
 SCF Done:  E(RB3LYP) =  -330.554110300     A.U. after    8 cycles
 SCF Done:  E(RB3LYP) =  -330.554110250     A.U. after    8 cycles
 SCF Done:  E(RB3LYP) =  -330.554110103     A.U. after    8 cycles
 Optimization completed.
    -- Stationary point found.

                         Standard orientation:
 ---------------------------------------------------------------------
 Center     Atomic      Atomic             Coordinates (Angstroms)
 Number     Number       Type             X           Y           Z
 ---------------------------------------------------------------------
      1          6           0       -1.037588   -0.082282   -0.016156
      2          6           0       -0.471682    1.356420    0.255171
      3          6           0        1.047988    1.242846    0.036974
      4          6           0        0.239293   -0.873657   -0.402951
      5          7           0        1.325748   -0.172927    0.276948
      6          6           0        2.657665   -0.599333   -0.110062
      7          1           0       -0.690594    1.663191    1.283048
      8          1           0       -0.918524    2.102536   -0.409883
      9          6           0       -2.071701   -0.093354   -1.152261
     10          6           0       -1.660188   -0.667099    1.264890
     11          1           0        1.636303    1.873372    0.712725
     12          1           0        1.312252    1.530281   -1.002419
     13          1           0        0.379469   -0.853284   -1.504625
     14          1           0        0.200173   -1.924589   -0.093272
     15          1           0        2.857024   -0.450777   -1.190931
     16          1           0        3.407440   -0.035514    0.454790
     17          1           0        2.790869   -1.661845    0.118259
     18          1           0       -1.665740    0.355868   -2.065959
     19          1           0       -2.969260    0.469639   -0.870101
     20          1           0       -2.385004   -1.116623   -1.393494
     21          1           0       -2.486336   -0.039209    1.619750
     22          1           0       -0.913058   -0.730047    2.062860
     23          1           0       -2.057985   -1.673757    1.086992
 ---------------------------------------------------------------------

 The electronic state is 1-A.
 Alpha  occ. eigenvalues --  -14.32756 -10.20673 -10.20396 -10.20349 -10.19965
 Alpha  occ. eigenvalues --  -10.18124 -10.17683 -10.17212  -0.93304  -0.80900
 Alpha  occ. eigenvalues --   -0.73854  -0.69749  -0.68453  -0.64383  -0.57695
 Alpha  occ. eigenvalues --   -0.54150  -0.48463  -0.47717  -0.44643  -0.43518
 Alpha  occ. eigenvalues --   -0.42356  -0.41255  -0.40898  -0.38892  -0.36965
 Alpha  occ. eigenvalues --   -0.35695  -0.35294  -0.34923  -0.32158  -0.31629
 Alpha  occ. eigenvalues --   -0.31256  -0.21629
 Alpha virt. eigenvalues --    0.00459   0.01573   0.02541   0.02670   0.04043
 Alpha virt. eigenvalues --    0.04505   0.04647   0.04938   0.05887   0.06526
 Alpha virt. eigenvalues --    0.07039   0.07975   0.08246   0.09095   0.09329

 Mulliken atomic charges:
              1
     1  C    0.262626
     2  C   -0.272438
     3  C   -0.305737
     4  C   -0.323554
     5  N   -0.072820
     6  C   -0.280819
     7  H    0.147263
     8  H    0.139512
     9  C   -0.583934
    10  C   -0.501870
    11  H    0.131371
    12  H    0.121527
    13  H    0.119121
    14  H    0.133928
    15  H    0.123937
    16  H    0.137677
    17  H    0.137133
    18  H    0.146589
    19  H    0.146421
    20  H    0.145336
    21  H    0.143076
    22  H    0.166156
    23  H    0.139498
 Sum of Mulliken atomic charges =   0.00000

 Dipole moment (field-independent basis, Debye):
    X=             -0.0224    Y=              0.1645    Z=             -0.4793  Tot=              0.5073
 Quadrupole moment (field-independent basis, Debye-Ang):
   XX=            -52.6708   YY=            -52.2386   ZZ=            -55.5391
   XY=             -0.0906   XZ=             -0.3148   YZ=              0.6597

 Normal termination of Gaussian 09 at Sun Mar 27 04:50:54 2016.
