 Gaussian 09, Revision A.01,
 Gaussian 09:  EM64L-G09RevA.01  8-May-2009

 -----------------------
 # opt b3lyp/6-31+g(d,p)
 -----------------------

 ------------------------
 3,3-dime-N-me-pyrrol-nlp
 ------------------------
 Symbolic Z-matrix:
 Charge =  0 Multiplicity = 1

 SCF Done:  E(RB3LYP) =  -330.549862515     A.U. after   12 cycles
 SCF Done:  E(RB3LYP) =  -330.553574845     A.U. after   11 cycles
 SCF Done:  E(RB3LYP) =  -330.553739384     A.U. after   10 cycles
 SCF Done:  E(RB3LYP) =  -330.553853407     A.U. after   10 cycles
 SCF Done:  E(RB3LYP) =  -330.554015863     A.U. after   10 cycles
 SCF Done:  E(RB3LYP) =  -330.554094223     A.U. after   10 cycles
 SCF Done:  E(RB3LYP) =  -330.554109787     A.U. after    9 cycles
 SCF Done:  E(RB3LYP) =  -330.554109840     A.U. after    9 cycles
 SCF Done:  E(RB3LYP) =  -330.554110253     A.U. after    8 cycles
 SCF Done:  E(RB3LYP) =  -330.554110226     A.U. after    8 cycles
 SCF Done:  E(RB3LYP) =  -330.554110098     A.U. after    8 cycles
 SCF Done:  E(RB3LYP) =  -330.554110035     A.U. after    7 cycles
 Optimization completed.
    -- Stationary point found.

                         Standard orientation:
 ---------------------------------------------------------------------
 Center     Atomic      Atomic             Coordinates (Angstroms)
 Number     Number       Type             X           Y           Z
 ---------------------------------------------------------------------
      1          6           0       -1.037589   -0.082327   -0.016154
      2          6           0       -0.471647    1.356323    0.255599
      3          6           0        1.047948    1.242845    0.037025
      4          6           0        0.239325   -0.873711   -0.402825
      5          7           0        1.325789   -0.172921    0.276926
      6          6           0        2.657693   -0.599276   -0.110071
      7          1           0       -0.690305    1.662631    1.283666
      8          1           0       -0.918711    2.102654   -0.409060
      9          6           0       -2.071414   -0.093006   -1.152527
     10          6           0       -1.660554   -0.667320    1.264636
     11          1           0        1.636412    1.873363    0.712655
     12          1           0        1.311974    1.530295   -1.002427
     13          1           0        0.379476   -0.853524   -1.504516
     14          1           0        0.200217   -1.924617   -0.093029
     15          1           0        2.857047   -0.450804   -1.190962
     16          1           0        3.407469   -0.035383    0.454714
     17          1           0        2.790960   -1.661770    0.118309
     18          1           0       -1.665172    0.356441   -2.065991
     19          1           0       -2.969001    0.469977   -0.870433
     20          1           0       -2.384733   -1.116182   -1.394136
     21          1           0       -2.486706   -0.039397    1.619426
     22          1           0       -0.913604   -0.730514    2.062761
     23          1           0       -2.058429   -1.673895    1.086446
 ---------------------------------------------------------------------

 The electronic state is 1-A.
 Alpha  occ. eigenvalues --  -14.32756 -10.20673 -10.20396 -10.20349 -10.19966
 Alpha  occ. eigenvalues --  -10.18124 -10.17683 -10.17212  -0.93304  -0.80900
 Alpha  occ. eigenvalues --   -0.73854  -0.69749  -0.68453  -0.64382  -0.57695
 Alpha  occ. eigenvalues --   -0.54150  -0.48463  -0.47718  -0.44644  -0.43517
 Alpha  occ. eigenvalues --   -0.42356  -0.41256  -0.40898  -0.38892  -0.36965
 Alpha  occ. eigenvalues --   -0.35695  -0.35294  -0.34923  -0.32158  -0.31629
 Alpha  occ. eigenvalues --   -0.31256  -0.21629
 Alpha virt. eigenvalues --    0.00459   0.01573   0.02541   0.02670   0.04042
 Alpha virt. eigenvalues --    0.04505   0.04647   0.04938   0.05887   0.06526
 Alpha virt. eigenvalues --    0.07039   0.07975   0.08246   0.09095   0.09328

 Mulliken atomic charges:
              1
     1  C    0.262749
     2  C   -0.272355
     3  C   -0.305811
     4  C   -0.323423
     5  N   -0.072849
     6  C   -0.280847
     7  H    0.147266
     8  H    0.139510
     9  C   -0.584028
    10  C   -0.501967
    11  H    0.131369
    12  H    0.121528
    13  H    0.119117
    14  H    0.133922
    15  H    0.123934
    16  H    0.137674
    17  H    0.137133
    18  H    0.146597
    19  H    0.146420
    20  H    0.145338
    21  H    0.143080
    22  H    0.166140
    23  H    0.139502
 Sum of Mulliken atomic charges =   0.00000

 Dipole moment (field-independent basis, Debye):
    X=             -0.0225    Y=              0.1645    Z=             -0.4791  Tot=              0.5070
 Quadrupole moment (field-independent basis, Debye-Ang):
   XX=            -52.6706   YY=            -52.2390   ZZ=            -55.5392
   XY=             -0.0904   XZ=             -0.3147   YZ=              0.6595

 Normal termination of Gaussian 09 at Sun Mar 27 05:44:08 2016.
