 Gaussian 09, Revision A.01,
 Gaussian 09:  EM64L-G09RevA.01  8-May-2009

 -----------------------
 # opt b3lyp/6-31+g(d,p)
 -----------------------

 -------------------------
 3,3diMe-N-Me-azetidine-lp
 -------------------------
 Symbolic Z-matrix:
 Charge =  0 Multiplicity = 1

 SCF Done:  E(RB3LYP) =  -291.201353789     A.U. after   12 cycles
 SCF Done:  E(RB3LYP) =  -291.210075625     A.U. after   11 cycles
 SCF Done:  E(RB3LYP) =  -291.211115237     A.U. after   13 cycles
 SCF Done:  E(RB3LYP) =  -291.211177871     A.U. after    9 cycles
 SCF Done:  E(RB3LYP) =  -291.211185404     A.U. after    9 cycles
 SCF Done:  E(RB3LYP) =  -291.211186104     A.U. after    7 cycles
 Optimization completed.
    -- Stationary point found.

                         Standard orientation:
 ---------------------------------------------------------------------
 Center     Atomic      Atomic             Coordinates (Angstroms)
 Number     Number       Type             X           Y           Z
 ---------------------------------------------------------------------
      1          6           0       -0.867386    0.035753    0.000001
      2          6           0        0.284800    0.049544    1.050296
      3          6           0        0.284802    0.049540   -1.050297
      4          7           0        1.222672   -0.396452   -0.000001
      5          6           0       -1.808946    1.237230   -0.000001
      6          6           0       -1.643765   -1.284814    0.000001
      7          6           0        2.571223    0.131442    0.000000
      8          1           0        0.204102   -0.623343    1.913602
      9          1           0        0.497311    1.072248    1.410927
     10          1           0        0.497308    1.072245   -1.410929
     11          1           0        0.204099   -0.623350   -1.913599
     12          1           0       -1.256973    2.183233   -0.000006
     13          1           0       -2.457689    1.226038   -0.884728
     14          1           0       -2.457684    1.226043    0.884729
     15          1           0       -2.286223   -1.359461    0.886010
     16          1           0       -2.286223   -1.359459   -0.886006
     17          1           0       -0.960944   -2.140226    0.000002
     18          1           0        2.602276    1.239761   -0.000004
     19          1           0        3.108779   -0.225363    0.885393
     20          1           0        3.108785   -0.225371   -0.885384
 ---------------------------------------------------------------------

 The electronic state is 1-A.
 Alpha  occ. eigenvalues --  -14.32530 -10.20639 -10.20637 -10.20325 -10.20240
 Alpha  occ. eigenvalues --  -10.17984 -10.17576  -0.94071  -0.79593  -0.71097
 Alpha  occ. eigenvalues --   -0.68795  -0.67620  -0.59800  -0.52998  -0.47895
 Alpha  occ. eigenvalues --   -0.47315  -0.45973  -0.42591  -0.41855  -0.40490
 Alpha  occ. eigenvalues --   -0.40136  -0.37393  -0.37358  -0.34308  -0.33673
 Alpha  occ. eigenvalues --   -0.31426  -0.30263  -0.21620
 Alpha virt. eigenvalues --    0.00403   0.01776   0.02803   0.02897   0.04362
 Alpha virt. eigenvalues --    0.04689   0.05029   0.05203   0.05880   0.06853
 Alpha virt. eigenvalues --    0.07265   0.07906   0.08321   0.10021   0.10426

 Mulliken atomic charges:
              1
     1  C    0.228748
     2  C   -0.235837
     3  C   -0.235836
     4  N   -0.174942
     5  C   -0.487535
     6  C   -0.532916
     7  C   -0.346126
     8  H    0.133721
     9  H    0.117856
    10  H    0.117856
    11  H    0.133721
    12  H    0.142753
    13  H    0.145589
    14  H    0.145589
    15  H    0.143059
    16  H    0.143059
    17  H    0.164129
    18  H    0.117463
    19  H    0.139824
    20  H    0.139824
 Sum of Mulliken atomic charges =   0.00000

 Dipole moment (field-independent basis, Debye):
    X=             -0.2847    Y=              0.7754    Z=              0.0000  Tot=              0.8260
 Quadrupole moment (field-independent basis, Debye-Ang):
   XX=            -45.9027   YY=            -48.7410   ZZ=            -45.6642
   XY=              1.0211   XZ=              0.0000   YZ=              0.0000

 Normal termination of Gaussian 09 at Sun Mar 27 04:22:49 2016.
