 Gaussian 09, Revision A.01,
 Gaussian 09:  EM64L-G09RevA.01  8-May-2009

 -----------------------
 # opt b3lyp/6-31+g(d,p)
 -----------------------

 -------------------------
 3,3diMe-N-Me-azetidine-NI
 -------------------------
 Symbolic Z-matrix:
 Charge =  0 Multiplicity = 1

 SCF Done:  E(RB3LYP) =  -291.183311662     A.U. after   12 cycles
 SCF Done:  E(RB3LYP) =  -291.196730936     A.U. after   11 cycles
 SCF Done:  E(RB3LYP) =  -291.200592811     A.U. after   13 cycles
 SCF Done:  E(RB3LYP) =  -291.201038451     A.U. after   10 cycles
 SCF Done:  E(RB3LYP) =  -291.202690768     A.U. after   13 cycles
 SCF Done:  E(RB3LYP) =  -291.204014416     A.U. after   11 cycles
 SCF Done:  E(RB3LYP) =  -291.204641727     A.U. after   10 cycles
 SCF Done:  E(RB3LYP) =  -291.206228616     A.U. after   13 cycles
 SCF Done:  E(RB3LYP) =  -291.207381580     A.U. after   11 cycles
 SCF Done:  E(RB3LYP) =  -291.209888225     A.U. after   10 cycles
 SCF Done:  E(RB3LYP) =  -291.210956000     A.U. after   10 cycles
 SCF Done:  E(RB3LYP) =  -291.211134548     A.U. after   10 cycles
 SCF Done:  E(RB3LYP) =  -291.211177589     A.U. after   13 cycles
 SCF Done:  E(RB3LYP) =  -291.211185391     A.U. after    9 cycles
 SCF Done:  E(RB3LYP) =  -291.211186097     A.U. after    8 cycles
 SCF Done:  E(RB3LYP) =  -291.211186216     A.U. after    7 cycles
 Optimization completed.
    -- Stationary point found.

                         Standard orientation:
 ---------------------------------------------------------------------
 Center     Atomic      Atomic             Coordinates (Angstroms)
 Number     Number       Type             X           Y           Z
 ---------------------------------------------------------------------
      1          6           0       -0.867364    0.035722    0.000000
      2          6           0        0.284821    0.048902    1.050417
      3          6           0        0.284817    0.048899   -1.050421
      4          7           0        1.222833   -0.396774   -0.000004
      5          6           0       -1.808109    1.237925    0.000000
      6          6           0       -1.644689   -1.284204    0.000003
      7          6           0        2.571184    0.131628    0.000001
      8          1           0        0.203804   -0.624682    1.913107
      9          1           0        0.497525    1.071288    1.411548
     10          1           0        0.497523    1.071284   -1.411555
     11          1           0        0.203796   -0.624685   -1.913110
     12          1           0       -1.255425    2.183510   -0.000002
     13          1           0       -2.456829    1.227197   -0.884732
     14          1           0       -2.456825    1.227199    0.884736
     15          1           0       -2.287214   -1.358378    0.885999
     16          1           0       -2.287213   -1.358382   -0.885993
     17          1           0       -0.962610   -2.140215    0.000005
     18          1           0        2.601869    1.239956   -0.000066
     19          1           0        3.108877   -0.224900    0.885419
     20          1           0        3.108937   -0.225011   -0.885335
 ---------------------------------------------------------------------

 The electronic state is 1-A.
 Alpha  occ. eigenvalues --  -14.32528 -10.20637 -10.20636 -10.20324 -10.20241
 Alpha  occ. eigenvalues --  -10.17984 -10.17577  -0.94066  -0.79593  -0.71095
 Alpha  occ. eigenvalues --   -0.68796  -0.67620  -0.59799  -0.52996  -0.47896
 Alpha  occ. eigenvalues --   -0.47313  -0.45973  -0.42590  -0.41854  -0.40495
 Alpha  occ. eigenvalues --   -0.40137  -0.37394  -0.37360  -0.34307  -0.33674
 Alpha  occ. eigenvalues --   -0.31427  -0.30260  -0.21617
 Alpha virt. eigenvalues --    0.00403   0.01776   0.02803   0.02898   0.04362
 Alpha virt. eigenvalues --    0.04689   0.05028   0.05203   0.05880   0.06853
 Alpha virt. eigenvalues --    0.07264   0.07905   0.08321   0.10019   0.10427

 Mulliken atomic charges:
              1
     1  C    0.228584
     2  C   -0.235511
     3  C   -0.235505
     4  N   -0.175071
     5  C   -0.487785
     6  C   -0.532984
     7  C   -0.346224
     8  H    0.133736
     9  H    0.117874
    10  H    0.117873
    11  H    0.133736
    12  H    0.142755
    13  H    0.145592
    14  H    0.145592
    15  H    0.143070
    16  H    0.143070
    17  H    0.164096
    18  H    0.117448
    19  H    0.139827
    20  H    0.139827
 Sum of Mulliken atomic charges =   0.00000

 Dipole moment (field-independent basis, Debye):
    X=             -0.2856    Y=              0.7759    Z=              0.0000  Tot=              0.8268
 Quadrupole moment (field-independent basis, Debye-Ang):
   XX=            -45.9038   YY=            -48.7400   ZZ=            -45.6651
   XY=              1.0237   XZ=              0.0000   YZ=              0.0000

 Normal termination of Gaussian 09 at Sun Mar 27 04:38:10 2016.
