 Gaussian 09, Revision A.01,
 Gaussian 09:  EM64L-G09RevA.01  8-May-2009

 -----------------------
 # opt b3lyp/6-31+g(d,p)
 -----------------------

 -------
 acetone
 -------
 Symbolic Z-matrix:
 Charge =  0 Multiplicity = 1

 SCF Done:  E(RB3LYP) =  -193.172717236     A.U. after   11 cycles
 SCF Done:  E(RB3LYP) =  -193.174464402     A.U. after   10 cycles
 SCF Done:  E(RB3LYP) =  -193.174501280     A.U. after   13 cycles
 SCF Done:  E(RB3LYP) =  -193.174476131     A.U. after   12 cycles
 SCF Done:  E(RB3LYP) =  -193.174504939     A.U. after    8 cycles
 Optimization completed.
    -- Stationary point found.

                         Standard orientation:
 ---------------------------------------------------------------------
 Center     Atomic      Atomic             Coordinates (Angstroms)
 Number     Number       Type             X           Y           Z
 ---------------------------------------------------------------------
      1          6           0       -1.293283   -0.613615   -0.000010
      2          6           0       -0.000003    0.181966    0.000016
      3          8           0       -0.000002    1.400922   -0.000007
      4          6           0        1.293288   -0.613612   -0.000016
      5          1           0       -1.338428   -1.265486    0.880700
      6          1           0       -2.148781    0.063457   -0.000244
      7          1           0       -1.338227   -1.265887   -0.880428
      8          1           0        1.338562   -1.265222    0.880881
      9          1           0        1.338105   -1.266141   -0.880247
     10          1           0        2.148777    0.063472   -0.000552
 ---------------------------------------------------------------------

 The electronic state is 1-A.
 Alpha  occ. eigenvalues --  -19.15245 -10.28974 -10.19966 -10.19965  -1.04904
 Alpha  occ. eigenvalues --   -0.77709  -0.71864  -0.54048  -0.46718  -0.46672
 Alpha  occ. eigenvalues --   -0.45792  -0.41102  -0.40300  -0.38690  -0.35821
 Alpha  occ. eigenvalues --   -0.25806
 Alpha virt. eigenvalues --   -0.02736  -0.00017   0.02703   0.04526   0.04770
 Alpha virt. eigenvalues --    0.05349   0.06983   0.07729   0.09217   0.10218
 Alpha virt. eigenvalues --    0.10451   0.11665   0.14104   0.17254   0.19882

 Mulliken atomic charges:
              1
     1  C   -0.501978
     2  C    0.408443
     3  O   -0.422991
     4  C   -0.501978
     5  H    0.163290
     6  H    0.182686
     7  H    0.163277
     8  H    0.163298
     9  H    0.163267
    10  H    0.182686
 Sum of Mulliken atomic charges =   0.00000

 Dipole moment (field-independent basis, Debye):
    X=              0.0000    Y=             -3.1956    Z=              0.0002  Tot=              3.1956
 Quadrupole moment (field-independent basis, Debye-Ang):
   XX=            -23.9334   YY=            -29.5355   ZZ=            -24.4995
   XY=              0.0000   XZ=              0.0001   YZ=             -0.0001

 Normal termination of Gaussian 09 at Sun Mar 27 05:45:00 2016.
