 Gaussian 09, Revision A.01,
 Gaussian 09:  EM64L-G09RevA.01  8-May-2009

 -----------------------
 # opt b3lyp/6-31+g(d,p)
 -----------------------

 -------------------
 Adamantyl-CMe2Cl-ts
 -------------------
 Symbolic Z-matrix:
 Charge =  0 Multiplicity = 1

 SCF Done:  E(RB3LYP) =  -968.275878914     A.U. after   14 cycles
 SCF Done:  E(RB3LYP) =  -968.283385781     A.U. after   13 cycles
 SCF Done:  E(RB3LYP) =  -968.283706054     A.U. after   11 cycles
 SCF Done:  E(RB3LYP) =  -968.283807143     A.U. after   11 cycles
 SCF Done:  E(RB3LYP) =  -968.283912805     A.U. after   11 cycles
 SCF Done:  E(RB3LYP) =  -968.284657122     A.U. after   12 cycles
 SCF Done:  E(RB3LYP) =  -968.281764499     A.U. after   12 cycles
 SCF Done:  E(RB3LYP) =  -968.285414590     A.U. after   12 cycles
 SCF Done:  E(RB3LYP) =  -968.287858791     A.U. after   12 cycles
 SCF Done:  E(RB3LYP) =  -968.291664545     A.U. after   14 cycles
 SCF Done:  E(RB3LYP) =  -968.296124220     A.U. after   14 cycles
 SCF Done:  E(RB3LYP) =  -968.297186267     A.U. after   12 cycles
 SCF Done:  E(RB3LYP) =  -968.297376859     A.U. after   12 cycles
 SCF Done:  E(RB3LYP) =  -968.297776762     A.U. after   12 cycles
 SCF Done:  E(RB3LYP) =  -968.297871489     A.U. after   11 cycles
 SCF Done:  E(RB3LYP) =  -968.297882847     A.U. after   10 cycles
 SCF Done:  E(RB3LYP) =  -968.297884773     A.U. after   10 cycles
 SCF Done:  E(RB3LYP) =  -968.297885317     A.U. after   10 cycles
 SCF Done:  E(RB3LYP) =  -968.297885532     A.U. after    8 cycles
 SCF Done:  E(RB3LYP) =  -968.297885573     A.U. after   15 cycles
 Optimization completed.
    -- Stationary point found.

                         Standard orientation:
 ---------------------------------------------------------------------
 Center     Atomic      Atomic             Coordinates (Angstroms)
 Number     Number       Type             X           Y           Z
 ---------------------------------------------------------------------
      1          6           0       -2.137034   -1.603809    0.000130
      2          6           0       -1.719642   -0.813824    1.255491
      3          6           0       -0.189930   -0.610263    1.258080
      4          6           0       -1.719601   -0.814053   -1.255358
      5          6           0       -0.189887   -0.610438   -1.257971
      6          6           0        0.277641    0.175289   -0.000004
      7          6           0       -2.420459    0.559556    1.258043
      8          6           0       -1.999555    1.343362   -0.000139
      9          6           0       -0.467795    1.547117   -0.000101
     10          6           0       -2.420428    0.559330   -1.258179
     11          6           0        1.834305    0.410880    0.000002
     12          6           0        2.361754    1.124562   -1.251547
     13          6           0        2.361749    1.124546    1.251554
     14         17           0        2.694099   -1.265895   -0.000001
     15          1           0       -3.222721   -1.770544    0.000107
     16          1           0       -1.660457   -2.593010    0.000223
     17          1           0       -2.001291   -1.374423    2.156335
     18          1           0        0.315140   -1.581175    1.293456
     19          1           0        0.091822   -0.069121    2.168744
     20          1           0       -2.001210   -1.374836   -2.156101
     21          1           0        0.091816   -0.069419   -2.168731
     22          1           0        0.315228   -1.581330   -1.293219
     23          1           0       -2.149673    1.121157    2.162651
     24          1           0       -3.511037    0.431372    1.275587
     25          1           0       -2.481863    2.329776   -0.000223
     26          1           0       -0.187102    2.134963    0.881875
     27          1           0       -0.187031    2.134844   -0.882127
     28          1           0       -3.511008    0.431158   -1.275704
     29          1           0       -2.149629    1.120749   -2.162895
     30          1           0        3.449907    1.209796   -1.196980
     31          1           0        2.113093    0.591654   -2.170309
     32          1           0        1.948327    2.136838   -1.311619
     33          1           0        3.449891    1.209902    1.196939
     34          1           0        1.948197    2.136765    1.311703
     35          1           0        2.113222    0.591564    2.170308
 ---------------------------------------------------------------------

 The electronic state is 1-A.
 Alpha  occ. eigenvalues -- -101.52197 -10.26324 -10.21014 -10.19146 -10.18892
 Alpha  occ. eigenvalues --  -10.18891 -10.18799 -10.18794 -10.18794 -10.18090
 Alpha  occ. eigenvalues --  -10.18089 -10.17886 -10.17886 -10.17862  -9.43706
 Alpha  occ. eigenvalues --   -7.20051  -7.19167  -7.19157  -0.88185  -0.84999
 Alpha  occ. eigenvalues --   -0.77619  -0.77019  -0.76987  -0.74497  -0.70326
 Alpha  occ. eigenvalues --   -0.67106  -0.66724  -0.61375  -0.58601  -0.58475
 Alpha  occ. eigenvalues --   -0.54100  -0.52342  -0.46774  -0.46058  -0.45601
 Alpha  occ. eigenvalues --   -0.45421  -0.45021  -0.43709  -0.43027  -0.41415
 Alpha  occ. eigenvalues --   -0.41100  -0.40618  -0.39680  -0.39395  -0.38081
 Alpha  occ. eigenvalues --   -0.36715  -0.36473  -0.35675  -0.33162  -0.32989
 Alpha  occ. eigenvalues --   -0.32791  -0.32552  -0.32495  -0.29839  -0.28786
 Alpha  occ. eigenvalues --   -0.28594  -0.28091  -0.27979
 Alpha virt. eigenvalues --   -0.01110   0.00323   0.01074   0.01327   0.01727
 Alpha virt. eigenvalues --    0.02870   0.02920   0.03423   0.03627   0.04007
 Alpha virt. eigenvalues --    0.05743   0.05888   0.06123   0.06494   0.06501

 Mulliken atomic charges:
              1
     1  C   -0.391976
     2  C    0.035077
     3  C   -0.311699
     4  C    0.035082
     5  C   -0.311692
     6  C   -0.294274
     7  C   -0.389349
     8  C    0.054240
     9  C   -0.393256
    10  C   -0.389347
    11  C    0.324471
    12  C   -0.442886
    13  C   -0.442879
    14  Cl  -0.043831
    15  H    0.130520
    16  H    0.135606
    17  H    0.118509
    18  H    0.165122
    19  H    0.129185
    20  H    0.118509
    21  H    0.129182
    22  H    0.165123
    23  H    0.130193
    24  H    0.131875
    25  H    0.118741
    26  H    0.136367
    27  H    0.136369
    28  H    0.131875
    29  H    0.130193
    30  H    0.162926
    31  H    0.162539
    32  H    0.152008
    33  H    0.162922
    34  H    0.152007
    35  H    0.162544
 Sum of Mulliken atomic charges =   0.00000

 Dipole moment (field-independent basis, Debye):
    X=             -1.4765    Y=              1.9813    Z=              0.0000  Tot=              2.4710
 Quadrupole moment (field-independent basis, Debye-Ang):
   XX=           -100.6419   YY=            -96.6575   ZZ=            -95.2360
   XY=              5.4942   XZ=              0.0000   YZ=              0.0001

 Normal termination of Gaussian 09 at Sun Mar 27 10:04:59 2016.
