 Gaussian 09, Revision A.01,
 Gaussian 09:  EM64L-G09RevA.01  8-May-2009

 -----------------------
 # opt b3lyp/6-31+g(d,p)
 -----------------------

 ----------------
 Adamantyl-CMe2Cl
 ----------------
 Symbolic Z-matrix:
 Charge =  0 Multiplicity = 1

 SCF Done:  E(RB3LYP) =  -968.291082099     A.U. after   14 cycles
 SCF Done:  E(RB3LYP) =  -968.297408999     A.U. after   12 cycles
 SCF Done:  E(RB3LYP) =  -968.297760601     A.U. after   11 cycles
 SCF Done:  E(RB3LYP) =  -968.297859665     A.U. after   11 cycles
 SCF Done:  E(RB3LYP) =  -968.297881708     A.U. after   10 cycles
 SCF Done:  E(RB3LYP) =  -968.297884450     A.U. after   15 cycles
 SCF Done:  E(RB3LYP) =  -968.297885526     A.U. after   15 cycles
 Optimization completed.
    -- Stationary point found.

                         Standard orientation:
 ---------------------------------------------------------------------
 Center     Atomic      Atomic             Coordinates (Angstroms)
 Number     Number       Type             X           Y           Z
 ---------------------------------------------------------------------
      1          6           0        2.137056   -1.603848    0.000290
      2          6           0        1.719654   -0.814220   -1.255282
      3          6           0        0.189950   -0.610615   -1.257924
      4          6           0        1.719706   -0.813728    1.255570
      5          6           0        0.190004   -0.610130    1.258191
      6          6           0       -0.277530    0.175174   -0.000011
      7          6           0        2.420422    0.559180   -1.258250
      8          6           0        1.999560    1.343306   -0.000284
      9          6           0        0.467745    1.546974   -0.000286
     10          6           0        2.420476    0.559673    1.257971
     11          6           0       -1.834218    0.410976   -0.000003
     12          6           0       -2.361522    1.124619    1.251591
     13          6           0       -2.361554    1.124640   -1.251578
     14         17           0       -2.694546   -1.265815   -0.000001
     15          1           0        3.222763   -1.770620    0.000299
     16          1           0        1.660458   -2.593071    0.000494
     17          1           0        2.001383   -1.375079   -2.155988
     18          1           0       -0.315112   -1.581546   -1.293147
     19          1           0       -0.091685   -0.069628   -2.168749
     20          1           0        2.001473   -1.374237    2.156482
     21          1           0       -0.091618   -0.068792    2.168812
     22          1           0       -0.315050   -1.581050    1.293794
     23          1           0        2.149601    1.120533   -2.163039
     24          1           0        3.511026    0.431001   -1.275818
     25          1           0        2.481859    2.329760   -0.000485
     26          1           0        0.186994    2.134593   -0.882422
     27          1           0        0.187039    2.134920    0.881646
     28          1           0        3.511080    0.431502    1.275542
     29          1           0        2.149690    1.121377    2.162553
     30          1           0       -3.449663    1.210343    1.196996
     31          1           0       -2.113145    0.591456    2.170306
     32          1           0       -1.947699    2.136756    1.311834
     33          1           0       -3.449674    1.210528   -1.196863
     34          1           0       -1.947582    2.136712   -1.311908
     35          1           0       -2.113362    0.591398   -2.170295
 ---------------------------------------------------------------------

 The electronic state is 1-A.
 Alpha  occ. eigenvalues -- -101.52195 -10.26326 -10.21015 -10.19147 -10.18893
 Alpha  occ. eigenvalues --  -10.18893 -10.18799 -10.18795 -10.18795 -10.18091
 Alpha  occ. eigenvalues --  -10.18090 -10.17887 -10.17887 -10.17863  -9.43704
 Alpha  occ. eigenvalues --   -7.20049  -7.19165  -7.19155  -0.88185  -0.84997
 Alpha  occ. eigenvalues --   -0.77620  -0.77020  -0.76987  -0.74497  -0.70326
 Alpha  occ. eigenvalues --   -0.67106  -0.66725  -0.61374  -0.58602  -0.58475
 Alpha  occ. eigenvalues --   -0.54100  -0.52342  -0.46773  -0.46058  -0.45603
 Alpha  occ. eigenvalues --   -0.45420  -0.45021  -0.43709  -0.43027  -0.41416
 Alpha  occ. eigenvalues --   -0.41100  -0.40618  -0.39681  -0.39395  -0.38081
 Alpha  occ. eigenvalues --   -0.36715  -0.36473  -0.35673  -0.33162  -0.32988
 Alpha  occ. eigenvalues --   -0.32792  -0.32552  -0.32496  -0.29839  -0.28786
 Alpha  occ. eigenvalues --   -0.28593  -0.28091  -0.27980
 Alpha virt. eigenvalues --   -0.01111   0.00319   0.01073   0.01326   0.01726
 Alpha virt. eigenvalues --    0.02870   0.02920   0.03423   0.03626   0.04007
 Alpha virt. eigenvalues --    0.05742   0.05888   0.06123   0.06494   0.06500

 Mulliken atomic charges:
              1
     1  C   -0.391996
     2  C    0.035089
     3  C   -0.311764
     4  C    0.035077
     5  C   -0.311761
     6  C   -0.294326
     7  C   -0.389325
     8  C    0.054187
     9  C   -0.393078
    10  C   -0.389319
    11  C    0.324736
    12  C   -0.442966
    13  C   -0.442934
    14  Cl  -0.043980
    15  H    0.130522
    16  H    0.135608
    17  H    0.118511
    18  H    0.165126
    19  H    0.129202
    20  H    0.118511
    21  H    0.129193
    22  H    0.165129
    23  H    0.130193
    24  H    0.131875
    25  H    0.118742
    26  H    0.136356
    27  H    0.136363
    28  H    0.131875
    29  H    0.130192
    30  H    0.162923
    31  H    0.162558
    32  H    0.152000
    33  H    0.162917
    34  H    0.151994
    35  H    0.162569
 Sum of Mulliken atomic charges =   0.00000

 Dipole moment (field-independent basis, Debye):
    X=              1.4778    Y=              1.9820    Z=              0.0000  Tot=              2.4723
 Quadrupole moment (field-independent basis, Debye-Ang):
   XX=           -100.6471   YY=            -96.6583   ZZ=            -95.2351
   XY=             -5.4970   XZ=              0.0000   YZ=              0.0000

 Normal termination of Gaussian 09 at Sun Mar 27 06:47:13 2016.
