 Gaussian 09, Revision A.01,
 Gaussian 09:  EM64L-G09RevA.01  8-May-2009

 -----------------------
 # opt b3lyp/6-31+g(d,p)
 -----------------------

 ----------------------
 bicyclooctyl-CMe2Cl-ts
 ----------------------
 Symbolic Z-matrix:
 Charge =  0 Multiplicity = 1

 SCF Done:  E(RB3LYP) =  -890.836117743     A.U. after   14 cycles
 SCF Done:  E(RB3LYP) =  -890.844563584     A.U. after   13 cycles
 SCF Done:  E(RB3LYP) =  -890.847212921     A.U. after   13 cycles
 SCF Done:  E(RB3LYP) =  -890.849721685     A.U. after   15 cycles
 SCF Done:  E(RB3LYP) =  -890.753230051     A.U. after   14 cycles
 SCF Done:  E(RB3LYP) =  -890.853655873     A.U. after   13 cycles
 SCF Done:  E(RB3LYP) =  -890.857265106     A.U. after   14 cycles
 SCF Done:  E(RB3LYP) =  -890.858918160     A.U. after   13 cycles
 SCF Done:  E(RB3LYP) =  -890.858665268     A.U. after   15 cycles
 SCF Done:  E(RB3LYP) =  -890.859347680     A.U. after   15 cycles
 SCF Done:  E(RB3LYP) =  -890.859492267     A.U. after   12 cycles
 SCF Done:  E(RB3LYP) =  -890.859538950     A.U. after   10 cycles
 SCF Done:  E(RB3LYP) =  -890.859546305     A.U. after   10 cycles
 SCF Done:  E(RB3LYP) =  -890.859549066     A.U. after   10 cycles
 SCF Done:  E(RB3LYP) =  -890.859549194     A.U. after    8 cycles
 Optimization completed.
    -- Stationary point found.

                         Standard orientation:
 ---------------------------------------------------------------------
 Center     Atomic      Atomic             Coordinates (Angstroms)
 Number     Number       Type             X           Y           Z
 ---------------------------------------------------------------------
      1          6           0        2.340226    1.280207    0.059341
      2          6           0        0.821558    1.488354   -0.208417
      3          6           0        2.670460   -0.222506    0.004758
      4          6           0        0.050442    0.147224   -0.002553
      5          6           0        2.048944   -0.811607   -1.273785
      6          6           0        0.499448   -0.810949   -1.142933
      7          6           0        2.026002   -0.910799    1.221845
      8          6           0        0.541055   -0.466032    1.339113
      9          6           0       -1.495247    0.407709    0.001050
     10          6           0       -2.003089    1.150622   -1.240560
     11         17           0       -2.384725   -1.252011   -0.012972
     12          6           0       -2.002485    1.112386    1.265839
     13          1           0        2.616953    1.682897    1.041780
     14          1           0        2.930751    1.830231   -0.682707
     15          1           0        0.670814    1.834090   -1.236789
     16          1           0        0.430573    2.272945    0.447841
     17          1           0        3.756439   -0.373903    0.008870
     18          1           0        2.411995   -1.832563   -1.440023
     19          1           0        2.367114   -0.221801   -2.143082
     20          1           0        0.137306   -1.817756   -0.918990
     21          1           0        0.042700   -0.523553   -2.094729
     22          1           0        2.570349   -0.656699    2.139058
     23          1           0        2.096357   -1.999692    1.107589
     24          1           0        0.444869    0.281296    2.134442
     25          1           0       -0.093732   -1.312248    1.619096
     26          1           0       -3.094063    1.208653   -1.219002
     27          1           0       -1.611244    2.173220   -1.250262
     28          1           0       -1.709788    0.658137   -2.169535
     29          1           0       -3.081854    1.270002    1.195701
     30          1           0       -1.804764    0.530962    2.167349
     31          1           0       -1.524344    2.092308    1.371736
 ---------------------------------------------------------------------

 The electronic state is 1-A.
 Alpha  occ. eigenvalues -- -101.52191 -10.26323 -10.20936 -10.19005 -10.18933
 Alpha  occ. eigenvalues --  -10.18910 -10.18826 -10.18580 -10.18220 -10.18197
 Alpha  occ. eigenvalues --  -10.18181 -10.18029  -9.43707  -7.20052  -7.19166
 Alpha  occ. eigenvalues --   -7.19157  -0.87756  -0.84166  -0.76765  -0.74442
 Alpha  occ. eigenvalues --   -0.74157  -0.73721  -0.70107  -0.61638  -0.61261
 Alpha  occ. eigenvalues --   -0.61104  -0.55381  -0.50402  -0.48382  -0.48157
 Alpha  occ. eigenvalues --   -0.47901  -0.45366  -0.43345  -0.43104  -0.40777
 Alpha  occ. eigenvalues --   -0.40308  -0.39358  -0.38126  -0.37704  -0.37452
 Alpha  occ. eigenvalues --   -0.36448  -0.36381  -0.35565  -0.34781  -0.34439
 Alpha  occ. eigenvalues --   -0.32874  -0.30188  -0.29255  -0.28968  -0.28283
 Alpha  occ. eigenvalues --   -0.28165
 Alpha virt. eigenvalues --   -0.00734   0.00519   0.01086   0.01528   0.02152
 Alpha virt. eigenvalues --    0.03111   0.03427   0.03674   0.03879   0.04495
 Alpha virt. eigenvalues --    0.05822   0.06222   0.06448   0.06644   0.07566

 Mulliken atomic charges:
              1
     1  C   -0.457993
     2  C   -0.331259
     3  C    0.103242
     4  C   -0.060663
     5  C   -0.449532
     6  C   -0.257819
     7  C   -0.463652
     8  C   -0.294097
     9  C    0.345768
    10  C   -0.459302
    11  Cl  -0.057047
    12  C   -0.421198
    13  H    0.138064
    14  H    0.139147
    15  H    0.148255
    16  H    0.138333
    17  H    0.117848
    18  H    0.139514
    19  H    0.135692
    20  H    0.167071
    21  H    0.133175
    22  H    0.137111
    23  H    0.140069
    24  H    0.141148
    25  H    0.167932
    26  H    0.163722
    27  H    0.157403
    28  H    0.158854
    29  H    0.160693
    30  H    0.169222
    31  H    0.150299
 Sum of Mulliken atomic charges =   0.00000

 Dipole moment (field-independent basis, Debye):
    X=              1.5126    Y=              1.9946    Z=              0.0233  Tot=              2.5034
 Quadrupole moment (field-independent basis, Debye-Ang):
   XX=            -88.0564   YY=            -84.7377   ZZ=            -83.3304
   XY=             -4.7602   XZ=             -0.0384   YZ=             -0.0555

 Normal termination of Gaussian 09 at Sun Mar 27 11:39:05 2016.
