 Gaussian 09, Revision A.01,
 Gaussian 09:  EM64L-G09RevA.01  8-May-2009

 -----------------------
 # opt b3lyp/6-31+g(d,p)
 -----------------------

 -------------------
 bicyclooctyl-CMe2Cl
 -------------------
 Symbolic Z-matrix:
 Charge =  0 Multiplicity = 1

 SCF Done:  E(RB3LYP) =  -890.850898582     A.U. after   14 cycles
 SCF Done:  E(RB3LYP) =  -890.857934371     A.U. after   12 cycles
 SCF Done:  E(RB3LYP) =  -890.858369455     A.U. after   11 cycles
 SCF Done:  E(RB3LYP) =  -890.858466535     A.U. after   10 cycles
 SCF Done:  E(RB3LYP) =  -890.858489067     A.U. after   10 cycles
 SCF Done:  E(RB3LYP) =  -890.858493143     A.U. after    9 cycles
 SCF Done:  E(RB3LYP) =  -890.858493704     A.U. after   10 cycles
 Optimization completed.
    -- Stationary point found.

                         Standard orientation:
 ---------------------------------------------------------------------
 Center     Atomic      Atomic             Coordinates (Angstroms)
 Number     Number       Type             X           Y           Z
 ---------------------------------------------------------------------
      1          6           0       -2.399321   -1.207939    0.000000
      2          6           0       -1.709616    0.191774    0.000000
      3          6           0       -1.341583   -2.324296    0.000000
      4          6           0       -0.156789    0.043816    0.000000
      5          6           0       -0.459344   -2.179236    1.249625
      6          6           0        0.228067   -0.781653    1.259271
      7          6           0       -0.459344   -2.179236   -1.249625
      8          6           0        0.228067   -0.781653   -1.259271
      9          6           0        0.521500    1.463460    0.000000
     10          6           0        0.228067    2.300961    1.251588
     11         17           0        2.393458    1.235538    0.000000
     12          6           0        0.228067    2.300961   -1.251588
     13          1           0       -3.046885   -1.312130   -0.878841
     14          1           0       -3.046885   -1.312130    0.878841
     15          1           0       -2.030343    0.760665    0.878479
     16          1           0       -2.030343    0.760665   -0.878479
     17          1           0       -1.834915   -3.304185    0.000000
     18          1           0        0.293374   -2.976594    1.263313
     19          1           0       -1.069295   -2.311823    2.151516
     20          1           0        1.315071   -0.888014    1.301715
     21          1           0       -0.068516   -0.235425    2.159896
     22          1           0       -1.069295   -2.311823   -2.151516
     23          1           0        0.293374   -2.976594   -1.263313
     24          1           0       -0.068516   -0.235425   -2.159896
     25          1           0        1.315071   -0.888014   -1.301715
     26          1           0        0.767829    3.249659    1.195953
     27          1           0       -0.841862    2.526378    1.312214
     28          1           0        0.530389    1.796419    2.170391
     29          1           0        0.767829    3.249659   -1.195953
     30          1           0        0.530389    1.796419   -2.170391
     31          1           0       -0.841862    2.526378   -1.312214
 ---------------------------------------------------------------------

 The electronic state is 1-A'.
 Alpha  occ. eigenvalues -- -101.52200 -10.26398 -10.21016 -10.18975 -10.18924
 Alpha  occ. eigenvalues --  -10.18924 -10.18799 -10.18567 -10.18169 -10.18168
 Alpha  occ. eigenvalues --  -10.18029 -10.18029  -9.43717  -7.20061  -7.19176
 Alpha  occ. eigenvalues --   -7.19167  -0.87626  -0.84054  -0.76797  -0.74412
 Alpha  occ. eigenvalues --   -0.74110  -0.73793  -0.70098  -0.61661  -0.61225
 Alpha  occ. eigenvalues --   -0.61157  -0.55349  -0.50316  -0.48190  -0.48003
 Alpha  occ. eigenvalues --   -0.47791  -0.45471  -0.43354  -0.43161  -0.41074
 Alpha  occ. eigenvalues --   -0.40448  -0.39387  -0.38014  -0.37532  -0.37472
 Alpha  occ. eigenvalues --   -0.36390  -0.36384  -0.35572  -0.34933  -0.34477
 Alpha  occ. eigenvalues --   -0.32259  -0.30201  -0.29158  -0.29116  -0.28235
 Alpha  occ. eigenvalues --   -0.28211
 Alpha virt. eigenvalues --   -0.00792   0.00441   0.01059   0.01577   0.02215
 Alpha virt. eigenvalues --    0.03085   0.03394   0.03601   0.03869   0.04491
 Alpha virt. eigenvalues --    0.05340   0.06263   0.06437   0.06710   0.07597

 Mulliken atomic charges:
              1
     1  C   -0.424107
     2  C   -0.352218
     3  C    0.054093
     4  C   -0.102326
     5  C   -0.429129
     6  C   -0.260799
     7  C   -0.429129
     8  C   -0.260799
     9  C    0.381355
    10  C   -0.444138
    11  Cl  -0.055678
    12  C   -0.444138
    13  H    0.137714
    14  H    0.137714
    15  H    0.138425
    16  H    0.138425
    17  H    0.118465
    18  H    0.138427
    19  H    0.135442
    20  H    0.166464
    21  H    0.131173
    22  H    0.135442
    23  H    0.138427
    24  H    0.131173
    25  H    0.166464
    26  H    0.163155
    27  H    0.151230
    28  H    0.162245
    29  H    0.163155
    30  H    0.162245
    31  H    0.151230
 Sum of Mulliken atomic charges =   0.00000

 Dipole moment (field-independent basis, Debye):
    X=             -2.4944    Y=             -0.0658    Z=              0.0000  Tot=              2.4953
 Quadrupole moment (field-independent basis, Debye-Ang):
   XX=            -90.2789   YY=            -82.5363   ZZ=            -83.3129
   XY=             -3.1999   XZ=              0.0000   YZ=              0.0000

 Normal termination of Gaussian 09 at Sun Mar 27 10:27:00 2016.
