 Gaussian 09, Revision A.01,
 Gaussian 09:  EM64L-G09RevA.01  8-May-2009

 -----------------------
 # opt b3lyp/6-31+g(d,p)
 -----------------------

 ----------
 butane-ecl
 ----------
 Symbolic Z-matrix:
 Charge =  0 Multiplicity = 1

 SCF Done:  E(RB3LYP) =  -158.464894845     A.U. after   10 cycles
 SCF Done:  E(RB3LYP) =  -158.467270209     A.U. after    9 cycles
 SCF Done:  E(RB3LYP) =  -158.467354722     A.U. after   11 cycles
 SCF Done:  E(RB3LYP) =  -158.467366310     A.U. after    7 cycles
 Optimization completed.
    -- Stationary point found.

                         Standard orientation:
 ---------------------------------------------------------------------
 Center     Atomic      Atomic             Coordinates (Angstroms)
 Number     Number       Type             X           Y           Z
 ---------------------------------------------------------------------
      1          6           0        1.476406   -0.648428   -0.000038
      2          6           0        0.780909    0.720968    0.000078
      3          6           0       -0.780915    0.720968   -0.000079
      4          6           0       -1.476401   -0.648430    0.000038
      5          1           0        2.564316   -0.517817    0.000072
      6          1           0        1.218760   -1.241810    0.883796
      7          1           0        1.218925   -1.241567   -0.884086
      8          1           0        1.136559    1.282861    0.872547
      9          1           0        1.136737    1.283094   -0.872169
     10          1           0       -1.136730    1.283092    0.872177
     11          1           0       -1.136564    1.282876   -0.872538
     12          1           0       -2.564316   -0.517838   -0.000081
     13          1           0       -1.218751   -1.241797   -0.883803
     14          1           0       -1.218925   -1.241569    0.884087
 ---------------------------------------------------------------------

 The electronic state is 1-A.
 Alpha  occ. eigenvalues --  -10.18229 -10.18212 -10.17496 -10.17494  -0.78828
 Alpha  occ. eigenvalues --   -0.71935  -0.64458  -0.56089  -0.46396  -0.44752
 Alpha  occ. eigenvalues --   -0.40812  -0.39048  -0.37682  -0.36512  -0.32899
 Alpha  occ. eigenvalues --   -0.32376  -0.30916
 Alpha virt. eigenvalues --    0.01134   0.02549   0.03149   0.04337   0.05024
 Alpha virt. eigenvalues --    0.07198   0.07665   0.07928   0.08029   0.10800
 Alpha virt. eigenvalues --    0.10958   0.11989   0.12551   0.13938   0.16318

 Mulliken atomic charges:
              1
     1  C   -0.535957
     2  C   -0.171251
     3  C   -0.171248
     4  C   -0.535961
     5  H    0.142042
     6  H    0.145103
     7  H    0.145104
     8  H    0.137479
     9  H    0.137480
    10  H    0.137479
    11  H    0.137479
    12  H    0.142041
    13  H    0.145103
    14  H    0.145105
 Sum of Mulliken atomic charges =   0.00000

 Dipole moment (field-independent basis, Debye):
    X=              0.0000    Y=              0.0877    Z=              0.0000  Tot=              0.0877
 Quadrupole moment (field-independent basis, Debye-Ang):
   XX=            -29.1095   YY=            -29.3520   ZZ=            -28.2613
   XY=              0.0000   XZ=             -0.0001   YZ=              0.0000

 Normal termination of Gaussian 09 at Sun Mar 27 11:41:39 2016.
