 Gaussian 09, Revision A.01,
 Gaussian 09:  EM64L-G09RevA.01  8-May-2009

 -----------------------
 # opt b3lyp/6-31+g(d,p)
 -----------------------

 --------
 butane-a
 --------
 Symbolic Z-matrix:
 Charge =  0 Multiplicity = 1

 SCF Done:  E(RB3LYP) =  -158.474421036     A.U. after   10 cycles
 SCF Done:  E(RB3LYP) =  -158.476570725     A.U. after    9 cycles
 SCF Done:  E(RB3LYP) =  -158.476589000     A.U. after    7 cycles
 Optimization completed.
    -- Stationary point found.

                         Standard orientation:
 ---------------------------------------------------------------------
 Center     Atomic      Atomic             Coordinates (Angstroms)
 Number     Number       Type             X           Y           Z
 ---------------------------------------------------------------------
      1          6           0       -1.407505   -1.373860    0.000000
      2          6           0        0.000025   -0.767314    0.000000
      3          6           0        0.000000    0.767285    0.000000
      4          6           0        1.407477    1.373875    0.000000
      5          1           0       -1.372177   -2.468598    0.000000
      6          1           0       -1.974404   -1.059669    0.884466
      7          1           0       -1.974404   -1.059669   -0.884466
      8          1           0        0.553941   -1.127407    0.878123
      9          1           0        0.553941   -1.127407   -0.878123
     10          1           0       -0.553956    1.127399   -0.878101
     11          1           0       -0.553956    1.127399    0.878101
     12          1           0        1.372132    2.468617    0.000000
     13          1           0        1.974451    1.059709    0.884439
     14          1           0        1.974451    1.059709   -0.884439
 ---------------------------------------------------------------------

 The electronic state is 1-A'.
 Alpha  occ. eigenvalues --  -10.18208 -10.18187 -10.17570 -10.17570  -0.79324
 Alpha  occ. eigenvalues --   -0.72398  -0.63134  -0.57659  -0.46782  -0.42594
 Alpha  occ. eigenvalues --   -0.41883  -0.41117  -0.36923  -0.35157  -0.33451
 Alpha  occ. eigenvalues --   -0.32362  -0.32328
 Alpha virt. eigenvalues --    0.01715   0.02141   0.03305   0.04005   0.05097
 Alpha virt. eigenvalues --    0.06914   0.07378   0.07812   0.08413   0.08433
 Alpha virt. eigenvalues --    0.10461   0.11235   0.13148   0.14840   0.15943

 Mulliken atomic charges:
              1
     1  C   -0.556055
     2  C   -0.144542
     3  C   -0.144516
     4  C   -0.556068
     5  H    0.143506
     6  H    0.143623
     7  H    0.143623
     8  H    0.134922
     9  H    0.134922
    10  H    0.134919
    11  H    0.134919
    12  H    0.143505
    13  H    0.143621
    14  H    0.143621
 Sum of Mulliken atomic charges =   0.00000

 Dipole moment (field-independent basis, Debye):
    X=              0.0000    Y=              0.0000    Z=              0.0000  Tot=              0.0000
 Quadrupole moment (field-independent basis, Debye-Ang):
   XX=            -29.6662   YY=            -29.0359   ZZ=            -28.3431
   XY=             -0.3291   XZ=              0.0000   YZ=              0.0000

 Normal termination of Gaussian 09 at Sun Mar 27 11:39:35 2016.
