 Gaussian 09, Revision A.01,
 Gaussian 09:  EM64L-G09RevA.01  8-May-2009

 -----------------------
 # opt b3lyp/6-31+g(d,p)
 -----------------------

 -----------------
 cyclohexane-chair
 -----------------
 Symbolic Z-matrix:
 Charge =  0 Multiplicity = 1

 SCF Done:  E(RB3LYP) =  -235.899792333     A.U. after   10 cycles
 SCF Done:  E(RB3LYP) =  -235.902277343     A.U. after   10 cycles
 SCF Done:  E(RB3LYP) =  -235.902338123     A.U. after   10 cycles
 SCF Done:  E(RB3LYP) =  -235.902379549     A.U. after   12 cycles
 SCF Done:  E(RB3LYP) =  -235.902370263     A.U. after   10 cycles
 Optimization completed.
    -- Stationary point found.

                         Standard orientation:
 ---------------------------------------------------------------------
 Center     Atomic      Atomic             Coordinates (Angstroms)
 Number     Number       Type             X           Y           Z
 ---------------------------------------------------------------------
      1          6           0       -1.004254    1.071208    0.228532
      2          6           0        0.425626    1.405114   -0.228549
      3          6           0        1.430052    0.334035    0.228522
      4          6           0       -1.430049   -0.334037   -0.228522
      5          6           0        1.004249   -1.071208   -0.228537
      6          6           0       -0.425628   -1.405112    0.228554
      7          1           0       -1.052088    1.122166    1.326456
      8          1           0       -1.708967    1.822893   -0.148964
      9          1           0        0.445890    1.472095   -1.326463
     10          1           0        2.433162    0.568322   -0.149760
     11          1           0       -2.433166   -0.568334    0.149740
     12          1           0        1.052094   -1.122160   -1.326462
     13          1           0       -0.724226   -2.391223   -0.149009
     14          1           0       -0.445869   -1.472071    1.326476
     15          1           0        1.499385    0.350157    1.326410
     16          1           0        0.724221    2.391217    0.149036
     17          1           0        1.708955   -1.822906    0.148950
     18          1           0       -1.499367   -0.350152   -1.326415
 ---------------------------------------------------------------------

 The electronic state is 1-A.
 Alpha  occ. eigenvalues --  -10.17927 -10.17918 -10.17918 -10.17898 -10.17897
 Alpha  occ. eigenvalues --  -10.17886  -0.82503  -0.73698  -0.73696  -0.60436
 Alpha  occ. eigenvalues --   -0.60435  -0.54726  -0.47556  -0.43964  -0.43265
 Alpha  occ. eigenvalues --   -0.43263  -0.37550  -0.37546  -0.36978  -0.33929
 Alpha  occ. eigenvalues --   -0.33923  -0.31376  -0.29735  -0.29729
 Alpha virt. eigenvalues --    0.00694   0.02440   0.02441   0.02508   0.04499
 Alpha virt. eigenvalues --    0.04500   0.06782   0.06783   0.07043   0.09395
 Alpha virt. eigenvalues --    0.09813   0.09814   0.09840   0.10313   0.11094

 Mulliken atomic charges:
              1
     1  C   -0.265739
     2  C   -0.265770
     3  C   -0.265639
     4  C   -0.265637
     5  C   -0.265739
     6  C   -0.265765
     7  H    0.134700
     8  H    0.131026
     9  H    0.134703
    10  H    0.131009
    11  H    0.131008
    12  H    0.134700
    13  H    0.131027
    14  H    0.134702
    15  H    0.134681
    16  H    0.131027
    17  H    0.131026
    18  H    0.134680
 Sum of Mulliken atomic charges =   0.00000

 Dipole moment (field-independent basis, Debye):
    X=              0.0000    Y=              0.0000    Z=              0.0000  Tot=              0.0000
 Quadrupole moment (field-independent basis, Debye-Ang):
   XX=            -40.9497   YY=            -40.9523   ZZ=            -40.3497
   XY=             -0.0010   XZ=              0.0014   YZ=              0.0004

 Normal termination of Gaussian 09 at Sun Mar 27 11:44:49 2016.
