 Gaussian 09, Revision A.01,
 Gaussian 09:  EM64L-G09RevA.01  8-May-2009

 -----------------------
 # opt b3lyp/6-31+g(d,p)
 -----------------------

 ----------------
 cyclohexane-sofa
 ----------------
 Symbolic Z-matrix:
 Charge =  0 Multiplicity = 1

 SCF Done:  E(RB3LYP) =  -235.889210242     A.U. after   10 cycles
 SCF Done:  E(RB3LYP) =  -235.892116263     A.U. after    9 cycles
 SCF Done:  E(RB3LYP) =  -235.892140442     A.U. after   11 cycles
 SCF Done:  E(RB3LYP) =  -235.892142423     A.U. after   11 cycles
 Optimization completed.
    -- Stationary point found.

                         Standard orientation:
 ---------------------------------------------------------------------
 Center     Atomic      Atomic             Coordinates (Angstroms)
 Number     Number       Type             X           Y           Z
 ---------------------------------------------------------------------
      1          6           0        0.666249    1.228646   -0.381669
      2          6           0        1.528908   -0.000149    0.000037
      3          6           0        0.665970   -1.228813    0.381634
      4          6           0       -0.665980    1.228810    0.381624
      5          6           0       -0.666239   -1.228647   -0.381678
      6          6           0       -1.528908    0.000151    0.000040
      7          1           0        0.455880    1.216714   -1.459754
      8          1           0        1.222628    2.153878   -0.191143
      9          1           0        2.187676    0.254855    0.839628
     10          1           0        1.222166   -2.154144    0.191049
     11          1           0       -1.222154    2.154150    0.191030
     12          1           0       -0.455866   -1.216698   -1.459758
     13          1           0       -2.187790    0.255242   -0.839434
     14          1           0       -2.187656   -0.254870    0.839643
     15          1           0        0.455587   -1.216926    1.459716
     16          1           0        2.187768   -0.255258   -0.839451
     17          1           0       -1.222640   -2.153871   -0.191170
     18          1           0       -0.455596    1.216940    1.459711
 ---------------------------------------------------------------------

 The electronic state is 1-A.
 Alpha  occ. eigenvalues --  -10.17913 -10.17911 -10.17886 -10.17879 -10.17864
 Alpha  occ. eigenvalues --  -10.17861  -0.82330  -0.73417  -0.73284  -0.61319
 Alpha  occ. eigenvalues --   -0.60515  -0.52358  -0.47956  -0.47484  -0.43098
 Alpha  occ. eigenvalues --   -0.39986  -0.37459  -0.36700  -0.36351  -0.35570
 Alpha  occ. eigenvalues --   -0.34791  -0.29840  -0.29754  -0.29725
 Alpha virt. eigenvalues --    0.00736   0.02364   0.02498   0.02706   0.04279
 Alpha virt. eigenvalues --    0.05469   0.05906   0.06775   0.06858   0.09700
 Alpha virt. eigenvalues --    0.10205   0.10358   0.10530   0.10715   0.10755

 Mulliken atomic charges:
              1
     1  C   -0.231350
     2  C   -0.355858
     3  C   -0.231356
     4  C   -0.231356
     5  C   -0.231350
     6  C   -0.355858
     7  H    0.138563
     8  H    0.132974
     9  H    0.137745
    10  H    0.132974
    11  H    0.132975
    12  H    0.138564
    13  H    0.137743
    14  H    0.137745
    15  H    0.138564
    16  H    0.137744
    17  H    0.132974
    18  H    0.138563
 Sum of Mulliken atomic charges =   0.00000

 Dipole moment (field-independent basis, Debye):
    X=              0.0000    Y=              0.0000    Z=              0.0000  Tot=              0.0000
 Quadrupole moment (field-independent basis, Debye-Ang):
   XX=            -41.0715   YY=            -40.7702   ZZ=            -40.2427
   XY=              0.0001   XZ=              0.0000   YZ=              0.0000

 Normal termination of Gaussian 09 at Sun Mar 27 11:47:21 2016.
