 Gaussian 09, Revision A.01,
 Gaussian 09:  EM64L-G09RevA.01  8-May-2009

 -----------------------
 # opt b3lyp/6-31+g(d,p)
 -----------------------

 ---------------------
 dimethylphosphine-ecl
 ---------------------
 Symbolic Z-matrix:
 Charge =  0 Multiplicity = 1

 SCF Done:  E(RB3LYP) =  -421.752818442     A.U. after   11 cycles
 SCF Done:  E(RB3LYP) =  -421.765631957     A.U. after   10 cycles
 SCF Done:  E(RB3LYP) =  -421.784013253     A.U. after   11 cycles
 SCF Done:  E(RB3LYP) =  -421.788694318     A.U. after   11 cycles
 SCF Done:  E(RB3LYP) =  -421.789629316     A.U. after    9 cycles
 SCF Done:  E(RB3LYP) =  -421.791181524     A.U. after   11 cycles
 SCF Done:  E(RB3LYP) =  -421.791697093     A.U. after    9 cycles
 SCF Done:  E(RB3LYP) =  -421.792016862     A.U. after    9 cycles
 SCF Done:  E(RB3LYP) =  -421.792045468     A.U. after    8 cycles
 SCF Done:  E(RB3LYP) =  -421.792049252     A.U. after    8 cycles
 SCF Done:  E(RB3LYP) =  -421.792049498     A.U. after    7 cycles
 Optimization completed.
    -- Stationary point found.

                         Standard orientation:
 ---------------------------------------------------------------------
 Center     Atomic      Atomic             Coordinates (Angstroms)
 Number     Number       Type             X           Y           Z
 ---------------------------------------------------------------------
      1         15           0        0.000026   -0.660179   -0.112700
      2          6           0        1.436084    0.531952    0.021783
      3          6           0       -1.436071    0.531952    0.021730
      4          1           0       -0.000327   -1.084207    1.248833
      5          1           0        2.363267   -0.032348    0.161698
      6          1           0        1.526952    1.088553   -0.916431
      7          1           0        1.328148    1.245534    0.844936
      8          1           0       -2.363138   -0.032381    0.162386
      9          1           0       -1.327785    1.245855    0.844590
     10          1           0       -1.527593    1.088255   -0.916590
 ---------------------------------------------------------------------

 The electronic state is 1-A.
 Alpha  occ. eigenvalues --  -77.08064 -10.18945 -10.18945  -6.54954  -4.71199
 Alpha  occ. eigenvalues --   -4.71192  -4.70694  -0.74584  -0.69322  -0.56199
 Alpha  occ. eigenvalues --   -0.43530  -0.42734  -0.40668  -0.40265  -0.34420
 Alpha  occ. eigenvalues --   -0.33662  -0.23909
 Alpha virt. eigenvalues --   -0.00689   0.00434   0.02552   0.03997   0.04977
 Alpha virt. eigenvalues --    0.06375   0.06540   0.07431   0.07798   0.08203
 Alpha virt. eigenvalues --    0.10220   0.11429   0.12859   0.13769   0.17449

 Mulliken atomic charges:
              1
     1  P    0.302779
     2  C   -0.638963
     3  C   -0.638974
     4  H   -0.037759
     5  H    0.170847
     6  H    0.169169
     7  H    0.166452
     8  H    0.170838
     9  H    0.166432
    10  H    0.169180
 Sum of Mulliken atomic charges =   0.00000

 Dipole moment (field-independent basis, Debye):
    X=              0.0001    Y=              1.1893    Z=              0.6333  Tot=              1.3474
 Quadrupole moment (field-independent basis, Debye-Ang):
   XX=            -27.3586   YY=            -30.5462   ZZ=            -29.1496
   XY=              0.0001   XZ=              0.0000   YZ=             -1.7188

 Normal termination of Gaussian 09 at Sun Mar 27 11:55:23 2016.
