 Gaussian 09, Revision A.01,
 Gaussian 09:  EM64L-G09RevA.01  8-May-2009

 -----------------------
 # opt b3lyp/6-31+g(d,p)
 -----------------------

 -------------------
 dimethylphosphine-a
 -------------------
 Symbolic Z-matrix:
 Charge =  0 Multiplicity = 1

 SCF Done:  E(RB3LYP) =  -421.759523984     A.U. after   11 cycles
 SCF Done:  E(RB3LYP) =  -421.772850503     A.U. after   12 cycles
 SCF Done:  E(RB3LYP) =  -421.789189413     A.U. after   11 cycles
 SCF Done:  E(RB3LYP) =  -421.791719893     A.U. after   10 cycles
 SCF Done:  E(RB3LYP) =  -421.792018264     A.U. after    9 cycles
 SCF Done:  E(RB3LYP) =  -421.792046736     A.U. after    8 cycles
 SCF Done:  E(RB3LYP) =  -421.792049179     A.U. after    7 cycles
 SCF Done:  E(RB3LYP) =  -421.792049462     A.U. after    6 cycles
 Optimization completed.
    -- Stationary point found.

                         Standard orientation:
 ---------------------------------------------------------------------
 Center     Atomic      Atomic             Coordinates (Angstroms)
 Number     Number       Type             X           Y           Z
 ---------------------------------------------------------------------
      1         15           0        0.000000   -0.659835   -0.112739
      2          6           0        1.436454    0.531725    0.021694
      3          6           0       -1.436455    0.531725    0.021694
      4          1           0        0.000001   -1.083558    1.248828
      5          1           0        2.362919   -0.033374    0.163300
      6          1           0        1.529235    1.087676   -0.916648
      7          1           0        1.328098    1.245890    0.844316
      8          1           0       -2.362920   -0.033373    0.163298
      9          1           0       -1.328098    1.245889    0.844316
     10          1           0       -1.529232    1.087677   -0.916648
 ---------------------------------------------------------------------

 The electronic state is 1-A.
 Alpha  occ. eigenvalues --  -77.08063 -10.18945 -10.18945  -6.54952  -4.71198
 Alpha  occ. eigenvalues --   -4.71191  -4.70693  -0.74584  -0.69325  -0.56199
 Alpha  occ. eigenvalues --   -0.43527  -0.42733  -0.40673  -0.40267  -0.34423
 Alpha  occ. eigenvalues --   -0.33663  -0.23905
 Alpha virt. eigenvalues --   -0.00689   0.00436   0.02553   0.03998   0.04978
 Alpha virt. eigenvalues --    0.06374   0.06541   0.07432   0.07800   0.08204
 Alpha virt. eigenvalues --    0.10222   0.11425   0.12859   0.13769   0.17445

 Mulliken atomic charges:
              1
     1  P    0.302692
     2  C   -0.638944
     3  C   -0.638944
     4  H   -0.037774
     5  H    0.170837
     6  H    0.169227
     7  H    0.166422
     8  H    0.170837
     9  H    0.166422
    10  H    0.169227
 Sum of Mulliken atomic charges =   0.00000

 Dipole moment (field-independent basis, Debye):
    X=              0.0000    Y=              1.1896    Z=              0.6337  Tot=              1.3479
 Quadrupole moment (field-independent basis, Debye-Ang):
   XX=            -27.3576   YY=            -30.5463   ZZ=            -29.1487
   XY=              0.0000   XZ=              0.0000   YZ=             -1.7202

 Normal termination of Gaussian 09 at Sun Mar 27 11:53:48 2016.
