 Gaussian 09, Revision A.01,
 Gaussian 09:  EM64L-G09RevA.01  8-May-2009

 -----------------------
 # opt b3lyp/6-31+g(d,p)
 -----------------------

 -----------------
 dimethylsulfide-g
 -----------------
 Symbolic Z-matrix:
 Charge =  0 Multiplicity = 1

 SCF Done:  E(RB3LYP) =  -478.015006467     A.U. after   10 cycles
 SCF Done:  E(RB3LYP) =  -478.025375055     A.U. after   10 cycles
 SCF Done:  E(RB3LYP) =  -478.025842691     A.U. after    9 cycles
 SCF Done:  E(RB3LYP) =  -478.025919175     A.U. after   11 cycles
 SCF Done:  E(RB3LYP) =  -478.025919607     A.U. after    7 cycles
 Optimization completed.
    -- Stationary point found.

                         Standard orientation:
 ---------------------------------------------------------------------
 Center     Atomic      Atomic             Coordinates (Angstroms)
 Number     Number       Type             X           Y           Z
 ---------------------------------------------------------------------
      1          6           0       -1.394861    0.515130    0.000000
      2         16           0       -0.000001   -0.663023    0.000000
      3          6           0        1.394864    0.515130    0.000000
      4          1           0       -2.313753   -0.075989   -0.000004
      5          1           0       -1.381969    1.144699    0.894735
      6          1           0       -1.381964    1.144702   -0.894733
      7          1           0        1.381971    1.144696    0.894736
      8          1           0        2.313754   -0.075994   -0.000001
      9          1           0        1.381968    1.144694   -0.894737
 ---------------------------------------------------------------------

 The electronic state is 1-A.
 Alpha  occ. eigenvalues --  -88.87518 -10.21361 -10.21361  -7.93537  -5.90079
 Alpha  occ. eigenvalues --   -5.89703  -5.88970  -0.79750  -0.70887  -0.60215
 Alpha  occ. eigenvalues --   -0.44344  -0.44161  -0.42809  -0.41253  -0.36746
 Alpha  occ. eigenvalues --   -0.31605  -0.22314
 Alpha virt. eigenvalues --    0.00411   0.00567   0.03049   0.04808   0.05745
 Alpha virt. eigenvalues --    0.06815   0.06983   0.07564   0.07807   0.09577
 Alpha virt. eigenvalues --    0.11018   0.13097   0.13626   0.14357   0.16729

 Mulliken atomic charges:
              1
     1  C   -0.564528
     2  S    0.079252
     3  C   -0.564528
     4  H    0.178400
     5  H    0.173251
     6  H    0.173251
     7  H    0.173251
     8  H    0.178400
     9  H    0.173251
 Sum of Mulliken atomic charges =   0.00000

 Dipole moment (field-independent basis, Debye):
    X=              0.0000    Y=              1.7463    Z=              0.0000  Tot=              1.7463
 Quadrupole moment (field-independent basis, Debye-Ang):
   XX=            -24.2988   YY=            -28.9069   ZZ=            -29.1236
   XY=              0.0000   XZ=              0.0000   YZ=              0.0000

 Normal termination of Gaussian 09 at Sun Mar 27 12:00:30 2016.
