 Gaussian 09, Revision A.01,
 Gaussian 09:  EM64L-G09RevA.01  8-May-2009

 -----------------------
 # opt b3lyp/6-31+g(d,p)
 -----------------------

 ---------------
 diMe-sulfone-ts
 ---------------
 Symbolic Z-matrix:
 Charge =  0 Multiplicity = 1

 SCF Done:  E(RB3LYP) =  -628.414167407     A.U. after   12 cycles
 SCF Done:  E(RB3LYP) =  -628.418822098     A.U. after   13 cycles
 SCF Done:  E(RB3LYP) =  -628.419386573     A.U. after   10 cycles
 SCF Done:  E(RB3LYP) =  -628.419623325     A.U. after   10 cycles
 SCF Done:  E(RB3LYP) =  -628.420172439     A.U. after   11 cycles
 SCF Done:  E(RB3LYP) =  -628.420787802     A.U. after   11 cycles
 SCF Done:  E(RB3LYP) =  -628.421677794     A.U. after   10 cycles
 SCF Done:  E(RB3LYP) =  -628.422775580     A.U. after   13 cycles
 SCF Done:  E(RB3LYP) =  -628.422864278     A.U. after   13 cycles
 SCF Done:  E(RB3LYP) =  -628.422884983     A.U. after    9 cycles
 SCF Done:  E(RB3LYP) =  -628.422890759     A.U. after   13 cycles
 SCF Done:  E(RB3LYP) =  -628.422891861     A.U. after    8 cycles
 SCF Done:  E(RB3LYP) =  -628.422892090     A.U. after    7 cycles
 Optimization completed.
    -- Stationary point found.

                         Standard orientation:
 ---------------------------------------------------------------------
 Center     Atomic      Atomic             Coordinates (Angstroms)
 Number     Number       Type             X           Y           Z
 ---------------------------------------------------------------------
      1          6           0       -1.425510    0.923947   -0.000231
      2         16           0        0.000000   -0.190426    0.000039
      3          6           0        1.425530    0.923949   -0.000712
      4          8           0        0.000330   -0.920341    1.280452
      5          8           0       -0.000313   -0.921880   -1.279453
      6          1           0       -1.407183    1.534521   -0.904465
      7          1           0       -1.406065    1.536358    0.902747
      8          1           0        2.305575    0.277747   -0.000161
      9          1           0        1.406545    1.534987   -0.904623
     10          1           0        1.406327    1.536009    0.902515
     11          1           0       -2.305459    0.277584    0.001028
 ---------------------------------------------------------------------

 The electronic state is 1-A.
 Alpha  occ. eigenvalues --  -89.10879 -19.15224 -19.15222 -10.23987 -10.23986
 Alpha  occ. eigenvalues --   -8.13741  -6.10163  -6.10101  -6.10079  -1.10830
 Alpha  occ. eigenvalues --   -1.00503  -0.80739  -0.75851  -0.61368  -0.51354
 Alpha  occ. eigenvalues --   -0.49812  -0.49119  -0.45756  -0.45136  -0.43274
 Alpha  occ. eigenvalues --   -0.43073  -0.33716  -0.32409  -0.30721  -0.30108
 Alpha virt. eigenvalues --   -0.01433   0.01350   0.01859   0.03225   0.04145
 Alpha virt. eigenvalues --    0.04898   0.05444   0.06019   0.06688   0.07280
 Alpha virt. eigenvalues --    0.09938   0.10163   0.11457   0.12332   0.13300

 Mulliken atomic charges:
              1
     1  C   -0.517762
     2  S    0.951174
     3  C   -0.517734
     4  O   -0.557265
     5  O   -0.557203
     6  H    0.192666
     7  H    0.192634
     8  H    0.214103
     9  H    0.192642
    10  H    0.192642
    11  H    0.214104
 Sum of Mulliken atomic charges =   0.00000

 Dipole moment (field-independent basis, Debye):
    X=             -0.0002    Y=              4.9503    Z=             -0.0029  Tot=              4.9503
 Quadrupole moment (field-independent basis, Debye-Ang):
   XX=            -32.0010   YY=            -39.1974   ZZ=            -44.3958
   XY=             -0.0003   XZ=             -0.0027   YZ=             -0.0029

 Normal termination of Gaussian 09 at Sun Mar 27 11:51:48 2016.
