 Gaussian 09, Revision A.01,
 Gaussian 09:  EM64L-G09RevA.01  8-May-2009

 -----------------------
 # opt b3lyp/6-31+g(d,p)
 -----------------------

 -----------------
 dimethylether-ecl
 -----------------
 Symbolic Z-matrix:
 Charge =  0 Multiplicity = 1

 SCF Done:  E(RB3LYP) =  -155.035603402     A.U. after   10 cycles
 SCF Done:  E(RB3LYP) =  -155.037303342     A.U. after   11 cycles
 SCF Done:  E(RB3LYP) =  -155.037334692     A.U. after    8 cycles
 SCF Done:  E(RB3LYP) =  -155.037336224     A.U. after    7 cycles
 Optimization completed.
    -- Stationary point found.

                         Standard orientation:
 ---------------------------------------------------------------------
 Center     Atomic      Atomic             Coordinates (Angstroms)
 Number     Number       Type             X           Y           Z
 ---------------------------------------------------------------------
      1          6           0        1.192873    0.192760    0.000001
      2          8           0        0.003362   -0.574643    0.000003
      3          6           0       -1.196386    0.189427    0.000000
      4          1           0        2.026382   -0.513774   -0.000061
      5          1           0        1.267348    0.829600   -0.894858
      6          1           0        1.267413    0.829530    0.894904
      7          1           0       -1.786181   -0.055100   -0.891845
      8          1           0       -1.785862   -0.054512    0.892223
      9          1           0       -0.994915    1.268273   -0.000393
 ---------------------------------------------------------------------

 The electronic state is 1-A.
 Alpha  occ. eigenvalues --  -19.15585 -10.23225 -10.23152  -1.03186  -0.72605
 Alpha  occ. eigenvalues --   -0.64240  -0.47973  -0.47334  -0.46806  -0.40594
 Alpha  occ. eigenvalues --   -0.38107  -0.32169  -0.25740
 Alpha virt. eigenvalues --    0.00966   0.02882   0.03531   0.04703   0.05340
 Alpha virt. eigenvalues --    0.07348   0.07978   0.12030   0.15020   0.16757
 Alpha virt. eigenvalues --    0.18765   0.20899   0.22316   0.22776   0.24617

 Mulliken atomic charges:
              1
     1  C   -0.230364
     2  O   -0.348838
     3  C   -0.231902
     4  H    0.147963
     5  H    0.127503
     6  H    0.127505
     7  H    0.142195
     8  H    0.142187
     9  H    0.123751
 Sum of Mulliken atomic charges =   0.00000

 Dipole moment (field-independent basis, Debye):
    X=             -0.0080    Y=              1.5489    Z=             -0.0001  Tot=              1.5489
 Quadrupole moment (field-independent basis, Debye-Ang):
   XX=            -17.4691   YY=            -21.6559   ZZ=            -20.3784
   XY=             -0.1668   XZ=              0.0001   YZ=              0.0000

 Normal termination of Gaussian 09 at Sun Mar 27 11:52:14 2016.
