 Gaussian 09, Revision A.01,
 Gaussian 09:  EM64L-G09RevA.01  8-May-2009

 -----------------------
 # opt b3lyp/6-31+g(d,p)
 -----------------------

 ---------------
 dimethylether-g
 ---------------
 Symbolic Z-matrix:
 Charge =  0 Multiplicity = 1

 SCF Done:  E(RB3LYP) =  -155.039782074     A.U. after   10 cycles
 SCF Done:  E(RB3LYP) =  -155.041288855     A.U. after    9 cycles
 SCF Done:  E(RB3LYP) =  -155.041310957     A.U. after    7 cycles
 SCF Done:  E(RB3LYP) =  -155.041312832     A.U. after    7 cycles
 Optimization completed.
    -- Stationary point found.

                         Standard orientation:
 ---------------------------------------------------------------------
 Center     Atomic      Atomic             Coordinates (Angstroms)
 Number     Number       Type             X           Y           Z
 ---------------------------------------------------------------------
      1          6           0        1.177965    0.195744    0.000000
      2          8           0       -0.000029   -0.588048   -0.000001
      3          6           0       -1.177914    0.195733    0.000000
      4          1           0        2.024693   -0.494288   -0.000038
      5          1           0        1.235341    0.836015   -0.894401
      6          1           0        1.235376    0.835957    0.894440
      7          1           0       -1.235387    0.836033   -0.894402
      8          1           0       -2.024726   -0.494211    0.000000
      9          1           0       -1.235375    0.836018    0.894413
 ---------------------------------------------------------------------

 The electronic state is 1-A.
 Alpha  occ. eigenvalues --  -19.16010 -10.23205 -10.23204  -1.03743  -0.72612
 Alpha  occ. eigenvalues --   -0.64242  -0.48112  -0.47438  -0.47349  -0.40076
 Alpha  occ. eigenvalues --   -0.38254  -0.32459  -0.26340
 Alpha virt. eigenvalues --    0.01002   0.02903   0.03506   0.04602   0.05448
 Alpha virt. eigenvalues --    0.07166   0.08279   0.11979   0.15918   0.18566
 Alpha virt. eigenvalues --    0.18666   0.19366   0.21456   0.23824   0.25236

 Mulliken atomic charges:
              1
     1  C   -0.223871
     2  O   -0.344430
     3  C   -0.223880
     4  H    0.147136
     5  H    0.124491
     6  H    0.124492
     7  H    0.124470
     8  H    0.147124
     9  H    0.124470
 Sum of Mulliken atomic charges =   0.00000

 Dipole moment (field-independent basis, Debye):
    X=              0.0004    Y=              1.4604    Z=              0.0000  Tot=              1.4604
 Quadrupole moment (field-independent basis, Debye-Ang):
   XX=            -17.3529   YY=            -21.7451   ZZ=            -20.5315
   XY=              0.0000   XZ=              0.0000   YZ=              0.0000

 Normal termination of Gaussian 09 at Sun Mar 27 11:52:39 2016.
