 Gaussian 09, Revision A.01,
 Gaussian 09:  EM64L-G09RevA.01  8-May-2009

 -----------------------
 # opt b3lyp/6-31+g(d,p)
 -----------------------

 -------------------
 dimethylsulfide-ecl
 -------------------
 Symbolic Z-matrix:
 Charge =  0 Multiplicity = 1

 SCF Done:  E(RB3LYP) =  -478.013170880     A.U. after   10 cycles
 SCF Done:  E(RB3LYP) =  -478.022441974     A.U. after   11 cycles
 SCF Done:  E(RB3LYP) =  -478.022886660     A.U. after    9 cycles
 SCF Done:  E(RB3LYP) =  -478.022936973     A.U. after    9 cycles
 SCF Done:  E(RB3LYP) =  -478.022938271     A.U. after    7 cycles
 SCF Done:  E(RB3LYP) =  -478.022939236     A.U. after    8 cycles
 SCF Done:  E(RB3LYP) =  -478.022929864     A.U. after    9 cycles
 SCF Done:  E(RB3LYP) =  -478.022940331     A.U. after    9 cycles
 SCF Done:  E(RB3LYP) =  -478.022943587     A.U. after    9 cycles
 SCF Done:  E(RB3LYP) =  -478.022684406     A.U. after   10 cycles
 SCF Done:  E(RB3LYP) =  -478.024614786     A.U. after   10 cycles
 SCF Done:  E(RB3LYP) =  -478.024378833     A.U. after   10 cycles
 SCF Done:  E(RB3LYP) =  -478.024733537     A.U. after   10 cycles
 SCF Done:  E(RB3LYP) =  -478.025082842     A.U. after   10 cycles
 SCF Done:  E(RB3LYP) =  -478.025708034     A.U. after   10 cycles
 SCF Done:  E(RB3LYP) =  -478.024935106     A.U. after   10 cycles
 SCF Done:  E(RB3LYP) =  -478.025801959     A.U. after   10 cycles
 SCF Done:  E(RB3LYP) =  -478.025908065     A.U. after   11 cycles
 SCF Done:  E(RB3LYP) =  -478.025918209     A.U. after   11 cycles
 SCF Done:  E(RB3LYP) =  -478.025919590     A.U. after   11 cycles
 Optimization completed.
    -- Stationary point found.

                         Standard orientation:
 ---------------------------------------------------------------------
 Center     Atomic      Atomic             Coordinates (Angstroms)
 Number     Number       Type             X           Y           Z
 ---------------------------------------------------------------------
      1          6           0       -1.394749    0.515366   -0.000017
      2         16           0       -0.000060   -0.663268   -0.000013
      3          6           0        1.394904    0.515346   -0.000003
      4          1           0       -2.313750   -0.075559   -0.000464
      5          1           0       -1.381610    1.144371    0.895105
      6          1           0       -1.381353    1.145455   -0.894355
      7          1           0        1.381485    1.144733    0.894794
      8          1           0        2.313786   -0.075774    0.000002
      9          1           0        1.381464    1.144790   -0.894751
 ---------------------------------------------------------------------

 The electronic state is 1-A.
 Alpha  occ. eigenvalues --  -88.87518 -10.21363 -10.21362  -7.93537  -5.90078
 Alpha  occ. eigenvalues --   -5.89703  -5.88970  -0.79745  -0.70884  -0.60215
 Alpha  occ. eigenvalues --   -0.44346  -0.44163  -0.42807  -0.41254  -0.36741
 Alpha  occ. eigenvalues --   -0.31606  -0.22315
 Alpha virt. eigenvalues --    0.00408   0.00567   0.03046   0.04808   0.05745
 Alpha virt. eigenvalues --    0.06811   0.06983   0.07564   0.07807   0.09576
 Alpha virt. eigenvalues --    0.11017   0.13094   0.13623   0.14357   0.16735

 Mulliken atomic charges:
              1
     1  C   -0.564544
     2  S    0.079213
     3  C   -0.564513
     4  H    0.178398
     5  H    0.173261
     6  H    0.173244
     7  H    0.173268
     8  H    0.178398
     9  H    0.173274
 Sum of Mulliken atomic charges =   0.00000

 Dipole moment (field-independent basis, Debye):
    X=              0.0002    Y=              1.7467    Z=              0.0001  Tot=              1.7467
 Quadrupole moment (field-independent basis, Debye-Ang):
   XX=            -24.3007   YY=            -28.9068   ZZ=            -29.1238
   XY=             -0.0005   XZ=              0.0004   YZ=             -0.0006

 Normal termination of Gaussian 09 at Sun Mar 27 11:59:52 2016.
