 Gaussian 09, Revision A.01,
 Gaussian 09:  EM64L-G09RevA.01  8-May-2009

 -----------------------
 # opt b3lyp/6-31+g(d,p)
 -----------------------

 ------------
 diMe-sulfone
 ------------
 Symbolic Z-matrix:
 Charge =  0 Multiplicity = 1

 SCF Done:  E(RB3LYP) =  -628.418127004     A.U. after   11 cycles
 SCF Done:  E(RB3LYP) =  -628.422426318     A.U. after   13 cycles
 SCF Done:  E(RB3LYP) =  -628.422846957     A.U. after   12 cycles
 SCF Done:  E(RB3LYP) =  -628.422878294     A.U. after    8 cycles
 Optimization completed.
    -- Stationary point found.

                         Standard orientation:
 ---------------------------------------------------------------------
 Center     Atomic      Atomic             Coordinates (Angstroms)
 Number     Number       Type             X           Y           Z
 ---------------------------------------------------------------------
      1          6           0       -0.562845    1.602621    0.000000
      2         16           0       -0.116689   -0.151111    0.000000
      3          6           0        1.692699   -0.138920    0.000000
      4          8           0       -0.562845   -0.729247    1.280380
      5          8           0       -0.562845   -0.729247   -1.280380
      6          1           0       -0.173821    2.074352   -0.903826
      7          1           0       -0.173821    2.074352    0.903826
      8          1           0        1.994502   -1.188115    0.000000
      9          1           0        2.050392    0.356921   -0.903794
     10          1           0        2.050392    0.356921    0.903794
     11          1           0       -1.654230    1.629098    0.000000
 ---------------------------------------------------------------------

 The electronic state is 1-A'.
 Alpha  occ. eigenvalues --  -89.10879 -19.15232 -19.15232 -10.23986 -10.23982
 Alpha  occ. eigenvalues --   -8.13740  -6.10163  -6.10100  -6.10078  -1.10824
 Alpha  occ. eigenvalues --   -1.00505  -0.80744  -0.75846  -0.61366  -0.51345
 Alpha  occ. eigenvalues --   -0.49815  -0.49128  -0.45760  -0.45140  -0.43281
 Alpha  occ. eigenvalues --   -0.43068  -0.33716  -0.32413  -0.30729  -0.30105
 Alpha virt. eigenvalues --   -0.01433   0.01352   0.01864   0.03223   0.04141
 Alpha virt. eigenvalues --    0.04896   0.05438   0.06021   0.06689   0.07281
 Alpha virt. eigenvalues --    0.09936   0.10147   0.11473   0.12320   0.13296

 Mulliken atomic charges:
              1
     1  C   -0.517752
     2  S    0.951250
     3  C   -0.517629
     4  O   -0.557219
     5  O   -0.557219
     6  H    0.192640
     7  H    0.192640
     8  H    0.214028
     9  H    0.192619
    10  H    0.192619
    11  H    0.214023
 Sum of Mulliken atomic charges =   0.00000

 Dipole moment (field-independent basis, Debye):
    X=              3.0232    Y=              3.9175    Z=              0.0000  Tot=              4.9484
 Quadrupole moment (field-independent basis, Debye-Ang):
   XX=            -34.6983   YY=            -36.5150   ZZ=            -44.3953
   XY=             -3.4751   XZ=              0.0000   YZ=              0.0000

 Normal termination of Gaussian 09 at Sun Mar 27 11:48:07 2016.
