 Gaussian 09, Revision A.01,
 Gaussian 09:  EM64L-G09RevA.01  8-May-2009

 -----------------------
 # opt b3lyp/6-31+g(d,p)
 -----------------------

 ------------
 ethane-eclip
 ------------
 Symbolic Z-matrix:
 Charge =  0 Multiplicity = 1

 SCF Done:  E(RB3LYP) =  -79.8357197564     A.U. after    8 cycles
 SCF Done:  E(RB3LYP) =  -79.8372692800     A.U. after    9 cycles
 SCF Done:  E(RB3LYP) =  -79.8372877847     A.U. after    7 cycles
 SCF Done:  E(RB3LYP) =  -79.8372873956     A.U. after   10 cycles
 Optimization completed.
    -- Stationary point found.

                         Standard orientation:
 ---------------------------------------------------------------------
 Center     Atomic      Atomic             Coordinates (Angstroms)
 Number     Number       Type             X           Y           Z
 ---------------------------------------------------------------------
      1          6           0       -0.772718    0.000009    0.000000
      2          6           0        0.772717    0.000009    0.000000
      3          1           0       -1.179794    1.005733   -0.145353
      4          1           0       -1.179731   -0.628777   -0.798306
      5          1           0       -1.179777   -0.377009    0.943659
      6          1           0        1.179780   -0.378063    0.943238
      7          1           0        1.179733   -0.627883   -0.799007
      8          1           0        1.179796    1.005893   -0.144232
 ---------------------------------------------------------------------

 The electronic state is 1-A.
 Alpha  occ. eigenvalues --  -10.17785 -10.17766  -0.75009  -0.61896  -0.43344
 Alpha  occ. eigenvalues --   -0.43343  -0.36867  -0.34273  -0.34272
 Alpha virt. eigenvalues --    0.01795   0.02960   0.05448   0.05452   0.08099
 Alpha virt. eigenvalues --    0.09023   0.09024   0.14205   0.15176   0.15176
 Alpha virt. eigenvalues --    0.25179   0.26624   0.26625   0.28706   0.34521

 Mulliken atomic charges:
              1
     1  C   -0.443406
     2  C   -0.443406
     3  H    0.147801
     4  H    0.147803
     5  H    0.147802
     6  H    0.147802
     7  H    0.147803
     8  H    0.147801
 Sum of Mulliken atomic charges =   0.00000

 Dipole moment (field-independent basis, Debye):
    X=              0.0000    Y=              0.0000    Z=              0.0000  Tot=              0.0000
 Quadrupole moment (field-independent basis, Debye-Ang):
   XX=            -15.7386   YY=            -15.0699   ZZ=            -15.0701
   XY=              0.0000   XZ=              0.0000   YZ=              0.0000

 1\1\GINC-ROCK\FOpt\RB3LYP\6-31+G(d,p)\C2H6\STYLIANAKIS\27-Mar-2016\0\\
 # opt b3lyp/6-31+g(d,p)\\ethane-eclip\\0,1\C,-0.0005447298,-0.77262085
 51,0.0066353786\C,0.0005845342,0.7727568543,-0.0066383504\H,1.01234364
 58,-1.1797527068,0.0879952973\H,-0.574908479,-1.1719970193,0.848613989
 2\H,-0.4400415881,-1.187214288,-0.9062105807\H,-0.4393402656,1.1722598
 16,-0.9259856794\H,-0.5722459782,1.1873841509,0.8289894312\H,1.0141528
 607,1.179739568,0.0666005142\\Version=EM64L-G09RevA.01\State=1-A\HF=-7
 9.8372874\RMSD=7.950e-09\RMSF=7.506e-05\Dipole=-0.000002,-0.0000002,-0

 Normal termination of Gaussian 09 at Sun Mar 27 12:00:47 2016.
