 Gaussian 09, Revision A.01,
 Gaussian 09:  EM64L-G09RevA.01  8-May-2009

 -----------------------
 # opt b3lyp/6-31+g(d,p)
 -----------------------

 -----------
 ethanol-ecl
 -----------
 Symbolic Z-matrix:
 Charge =  0 Multiplicity = 1

 SCF Done:  E(RB3LYP) =  -155.049868065     A.U. after   10 cycles
 SCF Done:  E(RB3LYP) =  -155.052815964     A.U. after   11 cycles
 SCF Done:  E(RB3LYP) =  -155.052945558     A.U. after   11 cycles
 SCF Done:  E(RB3LYP) =  -155.052952367     A.U. after    7 cycles
 SCF Done:  E(RB3LYP) =  -155.052953011     A.U. after    7 cycles
 Optimization completed.
    -- Stationary point found.

                         Standard orientation:
 ---------------------------------------------------------------------
 Center     Atomic      Atomic             Coordinates (Angstroms)
 Number     Number       Type             X           Y           Z
 ---------------------------------------------------------------------
      1          6           0       -1.237908   -0.216169   -0.000043
      2          6           0        0.089262    0.554624    0.000045
      3          8           0        1.158027   -0.402314    0.000096
      4          1           0        2.002483    0.066282   -0.000704
      5          1           0        0.164625    1.199657   -0.886887
      6          1           0        0.164526    1.199608    0.887026
      7          1           0       -1.841133    0.005610   -0.885272
      8          1           0       -1.021860   -1.288502   -0.000354
      9          1           0       -1.840979    0.005125    0.885412
 ---------------------------------------------------------------------

 The electronic state is 1-A.
 Alpha  occ. eigenvalues --  -19.15706 -10.23880 -10.17897  -1.02175  -0.74934
 Alpha  occ. eigenvalues --   -0.61702  -0.52092  -0.46665  -0.40291  -0.38181
 Alpha  occ. eigenvalues --   -0.37211  -0.33787  -0.27614
 Alpha virt. eigenvalues --    0.00019   0.02582   0.03635   0.04777   0.07612
 Alpha virt. eigenvalues --    0.07989   0.08447   0.12527   0.15558   0.15828
 Alpha virt. eigenvalues --    0.17917   0.19451   0.22195   0.22800   0.27195

 Mulliken atomic charges:
              1
     1  C   -0.466927
     2  C   -0.054335
     3  O   -0.543747
     4  H    0.342535
     5  H    0.121928
     6  H    0.121948
     7  H    0.149107
     8  H    0.180374
     9  H    0.149116
 Sum of Mulliken atomic charges =   0.00000

 Dipole moment (field-independent basis, Debye):
    X=              0.1078    Y=              1.7400    Z=             -0.0015  Tot=              1.7433
 Quadrupole moment (field-independent basis, Debye-Ang):
   XX=            -17.2842   YY=            -21.0796   ZZ=            -20.5690
   XY=              2.2204   XZ=             -0.0035   YZ=             -0.0002

 Normal termination of Gaussian 09 at Sun Mar 27 12:05:14 2016.
