 Gaussian 09, Revision A.01,
 Gaussian 09:  EM64L-G09RevA.01  8-May-2009

 -----------------------
 # opt b3lyp/6-31+g(d,p)
 -----------------------

 ---------
 ethanol-g
 ---------
 Symbolic Z-matrix:
 Charge =  0 Multiplicity = 1

 SCF Done:  E(RB3LYP) =  -155.055219546     A.U. after   10 cycles
 SCF Done:  E(RB3LYP) =  -155.057877674     A.U. after   10 cycles
 SCF Done:  E(RB3LYP) =  -155.057979429     A.U. after    8 cycles
 SCF Done:  E(RB3LYP) =  -155.057983319     A.U. after    7 cycles
 Optimization completed.
    -- Stationary point found.

                         Standard orientation:
 ---------------------------------------------------------------------
 Center     Atomic      Atomic             Coordinates (Angstroms)
 Number     Number       Type             X           Y           Z
 ---------------------------------------------------------------------
      1          6           0        1.178724   -0.402230    0.000000
      2          6           0        0.000000    0.555944    0.000000
      3          8           0       -1.201604   -0.220964    0.000000
      4          1           0       -1.963975    0.371309    0.000000
      5          1           0        0.038118    1.203318    0.889207
      6          1           0        0.038118    1.203318   -0.889207
      7          1           0        2.122612    0.153829    0.000000
      8          1           0        1.152807   -1.043171    0.886820
      9          1           0        1.152807   -1.043171   -0.886820
 ---------------------------------------------------------------------

 The electronic state is 1-A'.
 Alpha  occ. eigenvalues --  -19.15741 -10.23845 -10.17960  -1.02298  -0.75283
 Alpha  occ. eigenvalues --   -0.61539  -0.52132  -0.46827  -0.40582  -0.38655
 Alpha  occ. eigenvalues --   -0.36869  -0.33712  -0.27852
 Alpha virt. eigenvalues --    0.00028   0.02539   0.03730   0.04769   0.07360
 Alpha virt. eigenvalues --    0.07949   0.08484   0.13238   0.15738   0.18028
 Alpha virt. eigenvalues --    0.18265   0.19361   0.21059   0.23062   0.24985

 Mulliken atomic charges:
              1
     1  C   -0.430396
     2  C   -0.080696
     3  O   -0.534852
     4  H    0.342708
     5  H    0.120189
     6  H    0.120189
     7  H    0.141981
     8  H    0.160439
     9  H    0.160439
 Sum of Mulliken atomic charges =   0.00000

 Dipole moment (field-independent basis, Debye):
    X=              0.1516    Y=              1.7679    Z=              0.0000  Tot=              1.7744
 Quadrupole moment (field-independent basis, Debye-Ang):
   XX=            -17.9493   YY=            -20.4159   ZZ=            -20.5463
   XY=             -2.6732   XZ=              0.0000   YZ=              0.0000

 Normal termination of Gaussian 09 at Sun Mar 27 12:05:32 2016.
