 Gaussian 09, Revision A.01,
 Gaussian 09:  EM64L-G09RevA.01  8-May-2009

 -----------------------
 # opt b3lyp/6-31+g(d,p)
 -----------------------

 ---------------
 ethanethiol-ecl
 ---------------
 Symbolic Z-matrix:
 Charge =  0 Multiplicity = 1

 SCF Done:  E(RB3LYP) =  -477.998139858     A.U. after   11 cycles
 SCF Done:  E(RB3LYP) =  -478.017974491     A.U. after   11 cycles
 SCF Done:  E(RB3LYP) =  -478.022172430     A.U. after   10 cycles
 SCF Done:  E(RB3LYP) =  -478.022361098     A.U. after   10 cycles
 SCF Done:  E(RB3LYP) =  -478.022402887     A.U. after    9 cycles
 SCF Done:  E(RB3LYP) =  -478.022344092     A.U. after   10 cycles
 SCF Done:  E(RB3LYP) =  -478.022427949     A.U. after   10 cycles
 SCF Done:  E(RB3LYP) =  -478.022744689     A.U. after   10 cycles
 SCF Done:  E(RB3LYP) =  -478.018697594     A.U. after   12 cycles
 SCF Done:  E(RB3LYP) =  -478.023006426     A.U. after   11 cycles
 SCF Done:  E(RB3LYP) =  -478.025988910     A.U. after   11 cycles
 SCF Done:  E(RB3LYP) =  -477.989150927     A.U. after   12 cycles
 SCF Done:  E(RB3LYP) =  -478.026004635     A.U. after   12 cycles
 SCF Done:  E(RB3LYP) =  -478.027057802     A.U. after   10 cycles
 SCF Done:  E(RB3LYP) =  -478.027672254     A.U. after   10 cycles
 SCF Done:  E(RB3LYP) =  -478.027544505     A.U. after   11 cycles
 SCF Done:  E(RB3LYP) =  -478.027695118     A.U. after   10 cycles
 SCF Done:  E(RB3LYP) =  -478.027700509     A.U. after   10 cycles
 SCF Done:  E(RB3LYP) =  -478.027734817     A.U. after   10 cycles
 SCF Done:  E(RB3LYP) =  -478.027734853     A.U. after    7 cycles
 Optimization completed.
    -- Stationary point found.

                         Standard orientation:
 ---------------------------------------------------------------------
 Center     Atomic      Atomic             Coordinates (Angstroms)
 Number     Number       Type             X           Y           Z
 ---------------------------------------------------------------------
      1          6           0       -0.504552    0.644831    0.091525
      2         16           0        1.175105   -0.098951   -0.079889
      3          1           0        1.084421   -0.938964    0.972238
      4          1           0       -0.559286    1.177387    1.045277
      5          1           0       -0.541759    1.398037   -0.701358
      6          6           0       -1.652071   -0.351991   -0.053838
      7          1           0       -1.604462   -0.871005   -1.015614
      8          1           0       -1.625091   -1.107190    0.739052
      9          1           0       -2.615768    0.167903    0.012503
 ---------------------------------------------------------------------

 The electronic state is 1-A.
 Alpha  occ. eigenvalues --  -88.87878 -10.22717 -10.19277  -7.94029  -5.90536
 Alpha  occ. eigenvalues --   -5.90175  -5.89494  -0.80348  -0.70828  -0.61233
 Alpha  occ. eigenvalues --   -0.47214  -0.43754  -0.41234  -0.38129  -0.36205
 Alpha  occ. eigenvalues --   -0.32608  -0.24113
 Alpha virt. eigenvalues --   -0.00487   0.01484   0.02424   0.03605   0.04504
 Alpha virt. eigenvalues --    0.06866   0.07401   0.07899   0.08624   0.10003
 Alpha virt. eigenvalues --    0.10591   0.12283   0.13788   0.15479   0.18496

 Mulliken atomic charges:
              1
     1  C   -0.305817
     2  S   -0.059966
     3  H    0.056682
     4  H    0.180340
     5  H    0.177394
     6  C   -0.515928
     7  H    0.165906
     8  H    0.150836
     9  H    0.150553
 Sum of Mulliken atomic charges =   0.00000

 Dipole moment (field-independent basis, Debye):
    X=             -1.6500    Y=              0.0999    Z=              0.7906  Tot=              1.8324
 Quadrupole moment (field-independent basis, Debye-Ang):
   XX=            -29.7188   YY=            -27.5541   ZZ=            -27.4007
   XY=             -1.4263   XZ=              0.8101   YZ=             -1.7935

 Normal termination of Gaussian 09 at Sun Mar 27 12:03:54 2016.
