 Gaussian 09, Revision A.01,
 Gaussian 09:  EM64L-G09RevA.01  8-May-2009

 -----------------------
 # opt b3lyp/6-31+g(d,p)
 -----------------------

 -------------
 ethanethiol-g
 -------------
 Symbolic Z-matrix:
 Charge =  0 Multiplicity = 1

 SCF Done:  E(RB3LYP) =  -478.003880363     A.U. after   11 cycles
 SCF Done:  E(RB3LYP) =  -478.023405475     A.U. after   11 cycles
 SCF Done:  E(RB3LYP) =  -478.027573682     A.U. after   11 cycles
 SCF Done:  E(RB3LYP) =  -478.027729810     A.U. after   10 cycles
 SCF Done:  E(RB3LYP) =  -478.027734714     A.U. after    8 cycles
 SCF Done:  E(RB3LYP) =  -478.027734834     A.U. after    7 cycles
 Optimization completed.
    -- Stationary point found.

                         Standard orientation:
 ---------------------------------------------------------------------
 Center     Atomic      Atomic             Coordinates (Angstroms)
 Number     Number       Type             X           Y           Z
 ---------------------------------------------------------------------
      1          6           0       -0.504639    0.644924    0.091538
      2         16           0        1.175160   -0.098928   -0.079844
      3          1           0        1.083844   -0.939620    0.971689
      4          1           0       -0.559209    1.177460    1.045276
      5          1           0       -0.541849    1.398103   -0.701342
      6          6           0       -1.652052   -0.352017   -0.053859
      7          1           0       -2.615876    0.167726    0.012279
      8          1           0       -1.604180   -0.871104   -1.015557
      9          1           0       -1.625147   -1.107147    0.739077
 ---------------------------------------------------------------------

 The electronic state is 1-A.
 Alpha  occ. eigenvalues --  -88.87878 -10.22717 -10.19278  -7.94029  -5.90536
 Alpha  occ. eigenvalues --   -5.90175  -5.89494  -0.80347  -0.70827  -0.61234
 Alpha  occ. eigenvalues --   -0.47213  -0.43753  -0.41236  -0.38129  -0.36206
 Alpha  occ. eigenvalues --   -0.32608  -0.24113
 Alpha virt. eigenvalues --   -0.00487   0.01484   0.02423   0.03605   0.04504
 Alpha virt. eigenvalues --    0.06867   0.07401   0.07900   0.08624   0.10003
 Alpha virt. eigenvalues --    0.10589   0.12284   0.13788   0.15474   0.18496

 Mulliken atomic charges:
              1
     1  C   -0.305811
     2  S   -0.059990
     3  H    0.056683
     4  H    0.180354
     5  H    0.177396
     6  C   -0.515953
     7  H    0.150559
     8  H    0.165923
     9  H    0.150838
 Sum of Mulliken atomic charges =   0.00000

 Dipole moment (field-independent basis, Debye):
    X=             -1.6507    Y=              0.0995    Z=              0.7900  Tot=              1.8327
 Quadrupole moment (field-independent basis, Debye-Ang):
   XX=            -29.7193   YY=            -27.5515   ZZ=            -27.4032
   XY=             -1.4256   XZ=              0.8085   YZ=             -1.7939

 Normal termination of Gaussian 09 at Sun Mar 27 12:04:41 2016.
