 Gaussian 09, Revision A.01,
 Gaussian 09:  EM64L-G09RevA.01  8-May-2009

 -----------------------
 # opt b3lyp/6-31+g(d,p)
 -----------------------

 --------
 ethane-g
 --------
 Symbolic Z-matrix:
 Charge =  0 Multiplicity = 1

 SCF Done:  E(RB3LYP) =  -79.8402721152     A.U. after    7 cycles
 SCF Done:  E(RB3LYP) =  -79.8416451339     A.U. after    7 cycles
 SCF Done:  E(RB3LYP) =  -79.8416463019     A.U. after    6 cycles
 Optimization completed.
    -- Stationary point found.

                         Standard orientation:
 ---------------------------------------------------------------------
 Center     Atomic      Atomic             Coordinates (Angstroms)
 Number     Number       Type             X           Y           Z
 ---------------------------------------------------------------------
      1          6           0       -0.000530   -0.765859    0.006597
      2          6           0        0.000530    0.765859   -0.006597
      3          1           0        0.320824   -1.156831    0.978346
      4          1           0       -1.000262   -1.165896   -0.195660
      5          1           0        0.676963   -1.171905   -0.752720
      6          1           0       -0.320824    1.156831   -0.978346
      7          1           0       -0.676963    1.171905    0.752720
      8          1           0        1.000262    1.165896    0.195660
 ---------------------------------------------------------------------

 The electronic state is 1-AG.
 Alpha  occ. eigenvalues --  -10.17806 -10.17785  -0.75307  -0.61715  -0.43471
 Alpha  occ. eigenvalues --   -0.43470  -0.36869  -0.34445  -0.34444
 Alpha virt. eigenvalues --    0.01748   0.03029   0.05368   0.05368   0.08040
 Alpha virt. eigenvalues --    0.08966   0.08966   0.14269   0.19587   0.19590
 Alpha virt. eigenvalues --    0.19776   0.19777   0.25517   0.29764   0.32689

 Mulliken atomic charges:
              1
     1  C   -0.434309
     2  C   -0.434309
     3  H    0.144772
     4  H    0.144770
     5  H    0.144767
     6  H    0.144772
     7  H    0.144767
     8  H    0.144770
 Sum of Mulliken atomic charges =   0.00000

 Dipole moment (field-independent basis, Debye):
    X=              0.0000    Y=              0.0000    Z=              0.0000  Tot=              0.0000
 Quadrupole moment (field-independent basis, Debye-Ang):
   XX=            -15.0773   YY=            -15.7607   ZZ=            -15.0769
   XY=             -0.0006   XZ=              0.0002   YZ=              0.0058

 1\1\GINC-ROCK\FOpt\RB3LYP\6-31+G(d,p)\C2H6\STYLIANAKIS\27-Mar-2016\0\\
 # opt b3lyp/6-31+g(d,p)\\ethane-g\\0,1\C,-0.0005295478,-0.7658593868,0
 .0065972949\C,0.0005295478,0.7658593868,-0.0065972949\H,0.320823911,-1
 .1568311257,0.978346411\H,-1.000262418,-1.1658961434,-0.1956600059\H,0
 .6769632175,-1.1719045956,-0.7527196339\H,-0.320823911,1.1568311257,-0
 .978346411\H,-0.6769632175,1.1719045956,0.7527196339\H,1.000262418,1.1
 658961434,0.1956600059\\Version=EM64L-G09RevA.01\State=1-AG\HF=-79.841
 6463\RMSD=8.477e-10\RMSF=5.007e-05\Dipole=0.,0.,0.\Quadrupole=0.169288

 Normal termination of Gaussian 09 at Sun Mar 27 12:00:56 2016.
