 Gaussian 09, Revision A.01,
 Gaussian 09:  EM64L-G09RevA.01  8-May-2009

 -----------------------
 # opt b3lyp/6-31+g(d,p)
 -----------------------

 ------------
 ethylbenzene
 ------------
 Symbolic Z-matrix:
 Charge =  0 Multiplicity = 1

 SCF Done:  E(RB3LYP) =  -310.902529898     A.U. after   13 cycles
 SCF Done:  E(RB3LYP) =  -310.904618604     A.U. after   12 cycles
 SCF Done:  E(RB3LYP) =  -310.904628984     A.U. after   10 cycles
 SCF Done:  E(RB3LYP) =  -310.904629885     A.U. after    9 cycles
 Optimization completed.
    -- Stationary point found.

                         Standard orientation:
 ---------------------------------------------------------------------
 Center     Atomic      Atomic             Coordinates (Angstroms)
 Number     Number       Type             X           Y           Z
 ---------------------------------------------------------------------
      1          6           0       -0.843137   -0.616733    0.000000
      2          6           0        0.000000    0.502237    0.000000
      3          6           0        1.388084    0.280135    0.000000
      4          6           0       -0.318574   -1.914981    0.000000
      5          6           0        1.061445   -2.118611    0.000000
      6          6           0        1.916159   -1.010706    0.000000
      7          6           0       -0.518060    1.932934    0.000000
      8          6           0       -2.038915    2.111687    0.000000
      9          1           0       -1.920399   -0.485875    0.000000
     10          1           0        2.062395    1.134237    0.000000
     11          1           0       -0.994499   -2.765855    0.000000
     12          1           0        1.468195   -3.125746    0.000000
     13          1           0        2.993443   -1.152910    0.000000
     14          1           0       -0.098669    2.450312    0.873706
     15          1           0       -0.098669    2.450312   -0.873706
     16          1           0       -2.293099    3.176461    0.000000
     17          1           0       -2.500359    1.661645   -0.885817
     18          1           0       -2.500359    1.661645    0.885817
 ---------------------------------------------------------------------

 The electronic state is 1-A'.
 Alpha  occ. eigenvalues --  -10.20165 -10.19491 -10.19402 -10.19360 -10.19169
 Alpha  occ. eigenvalues --  -10.19091 -10.19079 -10.18345  -0.85749  -0.78855
 Alpha  occ. eigenvalues --   -0.74558  -0.72551  -0.64079  -0.60316  -0.57581
 Alpha  occ. eigenvalues --   -0.51326  -0.46032  -0.45380  -0.45071  -0.43090
 Alpha  occ. eigenvalues --   -0.41782  -0.38156  -0.37261  -0.36835  -0.34695
 Alpha  occ. eigenvalues --   -0.33709  -0.33541  -0.25324  -0.24401
 Alpha virt. eigenvalues --   -0.01412  -0.00800   0.00665   0.01684   0.01991
 Alpha virt. eigenvalues --    0.03847   0.03989   0.04539   0.05900   0.06913
 Alpha virt. eigenvalues --    0.07125   0.07514   0.08267   0.09717   0.10450

 Mulliken atomic charges:
              1
     1  C   -0.704627
     2  C    0.381309
     3  C    0.283287
     4  C   -0.291544
     5  C   -0.136799
     6  C    0.051587
     7  C   -0.293051
     8  C   -0.663476
     9  H    0.118033
    10  H    0.116825
    11  H    0.121554
    12  H    0.121293
    13  H    0.122237
    14  H    0.159712
    15  H    0.159712
    16  H    0.146405
    17  H    0.153771
    18  H    0.153771
 Sum of Mulliken atomic charges =   0.00000

 Dipole moment (field-independent basis, Debye):
    X=             -0.1650    Y=              0.5325    Z=              0.0000  Tot=              0.5575
 Quadrupole moment (field-independent basis, Debye-Ang):
   XX=            -46.3512   YY=            -45.4837   ZZ=            -53.1686
   XY=             -0.0514   XZ=              0.0000   YZ=              0.0000

 Normal termination of Gaussian 09 at Sun Mar 27 12:12:48 2016.
