 Gaussian 09, Revision A.01,
 Gaussian 09:  EM64L-G09RevA.01  8-May-2009

 -----------------------
 # opt b3lyp/6-31+g(d,p)
 -----------------------

 --------------
 ethylamine-ecl
 --------------
 Symbolic Z-matrix:
 Charge =  0 Multiplicity = 1

 SCF Done:  E(RB3LYP) =  -135.183597845     A.U. after   11 cycles
 SCF Done:  E(RB3LYP) =  -135.187084053     A.U. after   12 cycles
 SCF Done:  E(RB3LYP) =  -135.187250584     A.U. after   12 cycles
 SCF Done:  E(RB3LYP) =  -135.187254503     A.U. after    8 cycles
 Optimization completed.
    -- Stationary point found.

                         Standard orientation:
 ---------------------------------------------------------------------
 Center     Atomic      Atomic             Coordinates (Angstroms)
 Number     Number       Type             X           Y           Z
 ---------------------------------------------------------------------
      1          6           0       -1.264498   -0.256462   -0.000008
      2          6           0        0.052546    0.567216    0.000014
      3          7           0        1.309739   -0.188130    0.000020
      4          1           0        1.377931   -0.787163    0.818907
      5          1           0        1.378081   -0.786895   -0.819051
      6          1           0       -1.049677   -1.331169   -0.000697
      7          1           0       -1.878896   -0.048671    0.883154
      8          1           0       -1.879478   -0.047693   -0.882540
      9          1           0        0.077800    1.227004   -0.874140
     10          1           0        0.077778    1.226973    0.874192
 ---------------------------------------------------------------------

 The electronic state is 1-A.
 Alpha  occ. eigenvalues --  -14.32071 -10.21204 -10.17937  -0.88126  -0.72836
 Alpha  occ. eigenvalues --   -0.61486  -0.49882  -0.43973  -0.41746  -0.40856
 Alpha  occ. eigenvalues --   -0.36277  -0.33941  -0.23961
 Alpha virt. eigenvalues --    0.00494   0.03049   0.03608   0.04337   0.07387
 Alpha virt. eigenvalues --    0.08406   0.08566   0.09622   0.11394   0.13640
 Alpha virt. eigenvalues --    0.15759   0.17702   0.18137   0.22541   0.22764

 Mulliken atomic charges:
              1
     1  C   -0.534793
     2  C   -0.136066
     3  N   -0.628560
     4  H    0.282393
     5  H    0.282391
     6  H    0.152823
     7  H    0.149664
     8  H    0.149659
     9  H    0.141242
    10  H    0.141247
 Sum of Mulliken atomic charges =   0.00000

 Dipole moment (field-independent basis, Debye):
    X=             -1.1315    Y=             -0.9210    Z=             -0.0003  Tot=              1.4589
 Quadrupole moment (field-independent basis, Debye-Ang):
   XX=            -25.2526   YY=            -20.4109   ZZ=            -19.3474
   XY=             -2.5447   XZ=             -0.0008   YZ=             -0.0002

 Normal termination of Gaussian 09 at Sun Mar 27 12:06:36 2016.
