 Gaussian 09, Revision A.01,
 Gaussian 09:  EM64L-G09RevA.01  8-May-2009

 -----------------------
 # opt b3lyp/6-31+g(d,p)
 -----------------------

 ------------
 ethylamine-a
 ------------
 Symbolic Z-matrix:
 Charge =  0 Multiplicity = 1

 SCF Done:  E(RB3LYP) =  -135.189575778     A.U. after   11 cycles
 SCF Done:  E(RB3LYP) =  -135.192433994     A.U. after   10 cycles
 SCF Done:  E(RB3LYP) =  -135.192562166     A.U. after    8 cycles
 SCF Done:  E(RB3LYP) =  -135.192564776     A.U. after    8 cycles
 Optimization completed.
    -- Stationary point found.

                         Standard orientation:
 ---------------------------------------------------------------------
 Center     Atomic      Atomic             Coordinates (Angstroms)
 Number     Number       Type             X           Y           Z
 ---------------------------------------------------------------------
      1          6           0        1.245346   -0.264959    0.000030
      2          6           0       -0.042658    0.570425   -0.000036
      3          7           0       -1.300462   -0.183306   -0.000045
      4          1           0       -1.366129   -0.783749   -0.818345
      5          1           0       -1.366497   -0.783145    0.818666
      6          1           0        2.134385    0.377867    0.000017
      7          1           0        1.296459   -0.909358    0.886107
      8          1           0        1.296494   -0.909426   -0.885995
      9          1           0       -0.053840    1.229095    0.876772
     10          1           0       -0.053768    1.229064   -0.876871
 ---------------------------------------------------------------------

 The electronic state is 1-A.
 Alpha  occ. eigenvalues --  -14.32102 -10.21208 -10.18033  -0.88248  -0.73146
 Alpha  occ. eigenvalues --   -0.61350  -0.50058  -0.44240  -0.41606  -0.40836
 Alpha  occ. eigenvalues --   -0.36480  -0.34320  -0.24035
 Alpha virt. eigenvalues --    0.00522   0.03087   0.03551   0.04254   0.07414
 Alpha virt. eigenvalues --    0.08163   0.08572   0.09882   0.12240   0.13639
 Alpha virt. eigenvalues --    0.15220   0.19225   0.20437   0.21974   0.23331

 Mulliken atomic charges:
              1
     1  C   -0.484704
     2  C   -0.171671
     3  N   -0.610873
     4  H    0.279528
     5  H    0.279542
     6  H    0.143297
     7  H    0.142796
     8  H    0.142792
     9  H    0.139642
    10  H    0.139650
 Sum of Mulliken atomic charges =   0.00000

 Dipole moment (field-independent basis, Debye):
    X=              1.1186    Y=             -0.8978    Z=              0.0007  Tot=              1.4343
 Quadrupole moment (field-independent basis, Debye-Ang):
   XX=            -25.1788   YY=            -20.4748   ZZ=            -19.3753
   XY=              2.5732   XZ=             -0.0018   YZ=              0.0007

 Normal termination of Gaussian 09 at Sun Mar 27 12:06:03 2016.
