 Gaussian 09, Revision A.01,
 Gaussian 09:  EM64L-G09RevA.01  8-May-2009

 -----------------------
 # opt b3lyp/6-31+g(d,p)
 -----------------------

 --------------------
 ethylbenzene-eth-rot
 --------------------
 Symbolic Z-matrix:
 Charge =  0 Multiplicity = 1

 SCF Done:  E(RB3LYP) =  -310.904046875     A.U. after   13 cycles
 SCF Done:  E(RB3LYP) =  -310.906262931     A.U. after   13 cycles
 SCF Done:  E(RB3LYP) =  -310.906284990     A.U. after    9 cycles
 SCF Done:  E(RB3LYP) =  -310.906286629     A.U. after    8 cycles
 Optimization completed.
    -- Stationary point found.

                         Standard orientation:
 ---------------------------------------------------------------------
 Center     Atomic      Atomic             Coordinates (Angstroms)
 Number     Number       Type             X           Y           Z
 ---------------------------------------------------------------------
      1          6           0       -0.271324   -1.204022   -0.183861
      2          6           0        0.435961   -0.000740   -0.326970
      3          6           0       -0.270152    1.203314   -0.184853
      4          6           0       -1.640294   -1.206583    0.096417
      5          6           0       -2.329898    0.000822    0.237957
      6          6           0       -1.639147    1.207426    0.095404
      7          6           0        1.927611   -0.001546   -0.591336
      8          6           0        2.768874    0.001127    0.698830
      9          1           0        0.255189   -2.149075   -0.297906
     10          1           0        0.257199    2.147808   -0.299685
     11          1           0       -2.168412   -2.150630    0.199197
     12          1           0       -3.394661    0.001383    0.452695
     13          1           0       -2.166304    2.152100    0.197357
     14          1           0        2.190527   -0.881880   -1.190472
     15          1           0        2.190847    0.876083   -1.194313
     16          1           0        3.839698    0.000371    0.466650
     17          1           0        2.553291    0.886530    1.306528
     18          1           0        2.552838   -0.881480    1.310416
 ---------------------------------------------------------------------

 The electronic state is 1-A.
 Alpha  occ. eigenvalues --  -10.20059 -10.19499 -10.19491 -10.19328 -10.19316
 Alpha  occ. eigenvalues --  -10.19240 -10.19238 -10.18232  -0.85848  -0.78820
 Alpha  occ. eigenvalues --   -0.74635  -0.72454  -0.63557  -0.60702  -0.57852
 Alpha  occ. eigenvalues --   -0.51179  -0.46807  -0.46098  -0.43152  -0.42454
 Alpha  occ. eigenvalues --   -0.41778  -0.39727  -0.37508  -0.35466  -0.35341
 Alpha  occ. eigenvalues --   -0.33611  -0.33374  -0.25420  -0.24589
 Alpha virt. eigenvalues --   -0.01361  -0.01282   0.00343   0.01778   0.02316
 Alpha virt. eigenvalues --    0.02953   0.04066   0.04482   0.05651   0.06319
 Alpha virt. eigenvalues --    0.07036   0.07336   0.07792   0.09076   0.10086

 Mulliken atomic charges:
              1
     1  C   -0.124420
     2  C    0.099207
     3  C   -0.123268
     4  C   -0.198333
     5  C   -0.085048
     6  C   -0.197726
     7  C   -0.098916
     8  C   -0.585197
     9  H    0.114657
    10  H    0.114673
    11  H    0.122850
    12  H    0.121789
    13  H    0.122850
    14  H    0.137482
    15  H    0.137572
    16  H    0.142609
    17  H    0.149601
    18  H    0.149618
 Sum of Mulliken atomic charges =   0.00000

 Dipole moment (field-independent basis, Debye):
    X=              0.3996    Y=              0.0001    Z=             -0.0205  Tot=              0.4001
 Quadrupole moment (field-independent basis, Debye-Ang):
   XX=            -46.1477   YY=            -45.8438   ZZ=            -53.3016
   XY=             -0.0007   XZ=             -1.6169   YZ=             -0.0033

 Normal termination of Gaussian 09 at Sun Mar 27 12:10:08 2016.
