 Gaussian 09, Revision A.01,
 Gaussian 09:  EM64L-G09RevA.01  8-May-2009

 -----------------------
 # opt b3lyp/6-31+g(d,p)
 -----------------------

 -------------
 methylamine-g
 -------------
 Symbolic Z-matrix:
 Charge =  0 Multiplicity = 1

 SCF Done:  E(RB3LYP) =  -95.8692435024     A.U. after   10 cycles
 SCF Done:  E(RB3LYP) =  -95.8717549528     A.U. after    9 cycles
 SCF Done:  E(RB3LYP) =  -95.8718482797     A.U. after    8 cycles
 SCF Done:  E(RB3LYP) =  -95.8718500239     A.U. after    7 cycles
 Optimization completed.
    -- Stationary point found.

                         Standard orientation:
 ---------------------------------------------------------------------
 Center     Atomic      Atomic             Coordinates (Angstroms)
 Number     Number       Type             X           Y           Z
 ---------------------------------------------------------------------
      1          6           0        0.048183    0.707589    0.000000
      2          7           0        0.048183   -0.757893    0.000000
      3          1           0       -0.948597    1.178750    0.000000
      4          1           0        0.589691    1.065988    0.881144
      5          1           0        0.589691    1.065988   -0.881144
      6          1           0       -0.428583   -1.125505    0.818237
      7          1           0       -0.428583   -1.125505   -0.818237
 ---------------------------------------------------------------------

 The electronic state is 1-A'.
 Alpha  occ. eigenvalues --  -14.32294 -10.20646  -0.87794  -0.66341  -0.49353
 Alpha  occ. eigenvalues --   -0.44256  -0.40620  -0.37201  -0.24011
 Alpha virt. eigenvalues --    0.00251   0.02993   0.04928   0.05845   0.10543
 Alpha virt. eigenvalues --    0.12555   0.14467   0.18766   0.19921   0.20537
 Alpha virt. eigenvalues --    0.22617   0.23561   0.28010   0.32088   0.63579

 Mulliken atomic charges:
              1
     1  C   -0.356299
     2  N   -0.607833
     3  H    0.120659
     4  H    0.142551
     5  H    0.142551
     6  H    0.279185
     7  H    0.279185
 Sum of Mulliken atomic charges =   0.00000

 Dipole moment (field-independent basis, Debye):
    X=             -1.4062    Y=              0.4165    Z=              0.0000  Tot=              1.4666
 Quadrupole moment (field-independent basis, Debye-Ang):
   XX=            -15.5374   YY=            -14.5521   ZZ=            -12.7254
   XY=              2.3998   XZ=              0.0000   YZ=              0.0000

 Normal termination of Gaussian 09 at Sun Mar 27 12:16:41 2016.
