 Gaussian 09, Revision A.01,
 Gaussian 09:  EM64L-G09RevA.01  8-May-2009

 -----------------------
 # opt b3lyp/6-31+g(d,p)
 -----------------------

 -----------------------
 methylformate O-CH3 ecl
 -----------------------
 Symbolic Z-matrix:
 Charge =  0 Multiplicity = 1

 SCF Done:  E(RB3LYP) =  -229.077521074     A.U. after   12 cycles
 SCF Done:  E(RB3LYP) =  -229.079282393     A.U. after   13 cycles
 SCF Done:  E(RB3LYP) =  -229.079416716     A.U. after   14 cycles
 SCF Done:  E(RB3LYP) =  -229.079082979     A.U. after   13 cycles
 SCF Done:  E(RB3LYP) =  -229.079433362     A.U. after   10 cycles
 SCF Done:  E(RB3LYP) =  -229.079447945     A.U. after    9 cycles
 SCF Done:  E(RB3LYP) =  -229.079449838     A.U. after    8 cycles
 Optimization completed.
    -- Stationary point found.

                         Standard orientation:
 ---------------------------------------------------------------------
 Center     Atomic      Atomic             Coordinates (Angstroms)
 Number     Number       Type             X           Y           Z
 ---------------------------------------------------------------------
      1          6           0        0.837827    0.432817   -0.000023
      2          8           0        1.343667   -0.665093    0.000008
      3          8           0       -0.477188    0.711016    0.000022
      4          6           0       -1.406109   -0.397794   -0.000013
      5          1           0        1.398731    1.378006    0.000000
      6          1           0       -2.026442   -0.303786   -0.893347
      7          1           0       -0.869424   -1.346545   -0.001148
      8          1           0       -2.025007   -0.305193    0.894471
 ---------------------------------------------------------------------

 The electronic state is 1-A.
 Alpha  occ. eigenvalues --  -19.21889 -19.16369 -10.33228 -10.25424  -1.11993
 Alpha  occ. eigenvalues --   -1.03788  -0.75204  -0.60814  -0.54261  -0.49341
 Alpha  occ. eigenvalues --   -0.48590  -0.43604  -0.41527  -0.37087  -0.32068
 Alpha  occ. eigenvalues --   -0.29996
 Alpha virt. eigenvalues --   -0.01461   0.00730   0.02318   0.03716   0.04819
 Alpha virt. eigenvalues --    0.04823   0.07642   0.08247   0.12036   0.14796
 Alpha virt. eigenvalues --    0.16280   0.16867   0.19157   0.22230   0.22395

 Mulliken atomic charges:
              1
     1  C    0.339514
     2  O   -0.453663
     3  O   -0.279479
     4  C   -0.236616
     5  H    0.126004
     6  H    0.158244
     7  H    0.187752
     8  H    0.158244
 Sum of Mulliken atomic charges =   0.00000

 Dipole moment (field-independent basis, Debye):
    X=             -1.8935    Y=              0.8196    Z=             -0.0001  Tot=              2.0633
 Quadrupole moment (field-independent basis, Debye-Ang):
   XX=            -23.7037   YY=            -24.9360   ZZ=            -23.3005
   XY=              5.0178   XZ=              0.0001   YZ=              0.0001

 Normal termination of Gaussian 09 at Sun Mar 27 12:18:27 2016.
