 Gaussian 09, Revision A.01,
 Gaussian 09:  EM64L-G09RevA.01  8-May-2009

 -----------------------
 # opt b3lyp/6-31+g(d,p)
 -----------------------

 ---------------
 methylformate-g
 ---------------
 Symbolic Z-matrix:
 Charge =  0 Multiplicity = 1

 SCF Done:  E(RB3LYP) =  -229.078498780     A.U. after   12 cycles
 SCF Done:  E(RB3LYP) =  -229.080541153     A.U. after   10 cycles
 SCF Done:  E(RB3LYP) =  -229.080673436     A.U. after    9 cycles
 SCF Done:  E(RB3LYP) =  -229.080451962     A.U. after   13 cycles
 SCF Done:  E(RB3LYP) =  -229.080685361     A.U. after   10 cycles
 SCF Done:  E(RB3LYP) =  -229.080700189     A.U. after   14 cycles
 Optimization completed.
    -- Stationary point found.

                         Standard orientation:
 ---------------------------------------------------------------------
 Center     Atomic      Atomic             Coordinates (Angstroms)
 Number     Number       Type             X           Y           Z
 ---------------------------------------------------------------------
      1          6           0       -0.832914    0.436611    0.000118
      2          8           0       -1.309882   -0.674596   -0.000035
      3          8           0        0.477154    0.727923   -0.000030
      4          6           0        1.377136   -0.402613    0.000001
      5          1           0       -1.413307    1.370566   -0.000210
      6          1           0        1.216144   -1.013649    0.891669
      7          1           0        1.215511   -1.014193   -0.891173
      8          1           0        2.378137    0.026673   -0.000478
 ---------------------------------------------------------------------

 The electronic state is 1-A.
 Alpha  occ. eigenvalues --  -19.21977 -19.16438 -10.33130 -10.25595  -1.12247
 Alpha  occ. eigenvalues --   -1.03756  -0.75127  -0.60897  -0.54260  -0.49514
 Alpha  occ. eigenvalues --   -0.48629  -0.43642  -0.40990  -0.37603  -0.32398
 Alpha  occ. eigenvalues --   -0.29885
 Alpha virt. eigenvalues --   -0.01626   0.00691   0.02332   0.03635   0.04676
 Alpha virt. eigenvalues --    0.04691   0.07408   0.08567   0.12230   0.15526
 Alpha virt. eigenvalues --    0.16385   0.16649   0.19827   0.21257   0.23218

 Mulliken atomic charges:
              1
     1  C    0.334746
     2  O   -0.452180
     3  O   -0.282825
     4  C   -0.216607
     5  H    0.125956
     6  H    0.166950
     7  H    0.166973
     8  H    0.156988
 Sum of Mulliken atomic charges =   0.00000

 Dipole moment (field-independent basis, Debye):
    X=              1.8168    Y=              0.8478    Z=              0.0001  Tot=              2.0049
 Quadrupole moment (field-independent basis, Debye-Ang):
   XX=            -23.4631   YY=            -25.0951   ZZ=            -23.3170
   XY=             -5.0055   XZ=              0.0000   YZ=             -0.0001

 Normal termination of Gaussian 09 at Sun Mar 27 12:17:31 2016.
