 Gaussian 09, Revision A.01,
 Gaussian 09:  EM64L-G09RevA.01  8-May-2009

 -----------------------
 # opt b3lyp/6-31+g(d,p)
 -----------------------

 ------------
 methanol-ecl
 ------------
 Symbolic Z-matrix:
 Charge =  0 Multiplicity = 1

 SCF Done:  E(RB3LYP) =  -115.730818844     A.U. after    9 cycles
 SCF Done:  E(RB3LYP) =  -115.732931854     A.U. after    9 cycles
 SCF Done:  E(RB3LYP) =  -115.733026585     A.U. after    8 cycles
 SCF Done:  E(RB3LYP) =  -115.733028414     A.U. after    7 cycles
 Optimization completed.
    -- Stationary point found.

                         Standard orientation:
 ---------------------------------------------------------------------
 Center     Atomic      Atomic             Coordinates (Angstroms)
 Number     Number       Type             X           Y           Z
 ---------------------------------------------------------------------
      1          6           0       -0.670148    0.019208    0.000004
      2          8           0        0.751276   -0.124744    0.000001
      3          1           0        1.165619    0.744226    0.000022
      4          1           0       -1.085854   -0.464624    0.891244
      5          1           0       -0.983183    1.069738   -0.001192
      6          1           0       -1.085904   -0.466634   -0.890106
 ---------------------------------------------------------------------

 The electronic state is 1-A.
 Alpha  occ. eigenvalues --  -19.15928 -10.23480  -1.02342  -0.68981  -0.51458
 Alpha  occ. eigenvalues --   -0.44257  -0.43227  -0.34210  -0.28052
 Alpha virt. eigenvalues --    0.00026   0.02270   0.05305   0.05418   0.14550
 Alpha virt. eigenvalues --    0.16824   0.18041   0.18990   0.20182   0.21008
 Alpha virt. eigenvalues --    0.27584   0.27885   0.33286   0.63873   0.64421

 Mulliken atomic charges:
              1
     1  C   -0.220215
     2  O   -0.524634
     3  H    0.340133
     4  H    0.141277
     5  H    0.122128
     6  H    0.141312
 Sum of Mulliken atomic charges =   0.00000

 Dipole moment (field-independent basis, Debye):
    X=             -0.9551    Y=              1.7489    Z=             -0.0001  Tot=              1.9927
 Quadrupole moment (field-independent basis, Debye-Ang):
   XX=            -13.1021   YY=            -12.4523   ZZ=            -14.0054
   XY=              2.3421   XZ=              0.0003   YZ=              0.0001

 Normal termination of Gaussian 09 at Sun Mar 27 12:14:21 2016.
