 Gaussian 09, Revision A.01,
 Gaussian 09:  EM64L-G09RevA.01  8-May-2009

 -----------------------
 # opt b3lyp/6-31+g(d,p)
 -----------------------

 ----------
 methanol-g
 ----------
 Symbolic Z-matrix:
 Charge =  0 Multiplicity = 1

 SCF Done:  E(RB3LYP) =  -115.732210934     A.U. after   10 cycles
 SCF Done:  E(RB3LYP) =  -115.734792992     A.U. after    9 cycles
 SCF Done:  E(RB3LYP) =  -115.734870959     A.U. after    8 cycles
 Optimization completed.
    -- Stationary point found.

                         Standard orientation:
 ---------------------------------------------------------------------
 Center     Atomic      Atomic             Coordinates (Angstroms)
 Number     Number       Type             X           Y           Z
 ---------------------------------------------------------------------
      1          6           0       -0.667569   -0.020543   -0.000002
      2          8           0        0.749379    0.122336   -0.000004
      3          1           0        1.155151   -0.753160    0.000050
      4          1           0       -1.031085   -0.545206    0.894409
      5          1           0       -1.082700    0.989447   -0.000739
      6          1           0       -1.030980   -0.546513   -0.893682
 ---------------------------------------------------------------------

 The electronic state is 1-A.
 Alpha  occ. eigenvalues --  -19.16083 -10.23447  -1.02522  -0.68947  -0.51377
 Alpha  occ. eigenvalues --   -0.44456  -0.43124  -0.34266  -0.28236
 Alpha virt. eigenvalues --    0.00039   0.02302   0.05224   0.05464   0.14605
 Alpha virt. eigenvalues --    0.17356   0.18737   0.19392   0.20297   0.21061
 Alpha virt. eigenvalues --    0.25147   0.27921   0.32533   0.63047   0.64119

 Mulliken atomic charges:
              1
     1  C   -0.215768
     2  O   -0.527679
     3  H    0.340449
     4  H    0.126445
     5  H    0.150120
     6  H    0.126433
 Sum of Mulliken atomic charges =   0.00000

 Dipole moment (field-independent basis, Debye):
    X=             -0.9586    Y=             -1.6479    Z=              0.0000  Tot=              1.9064
 Quadrupole moment (field-independent basis, Debye-Ang):
   XX=            -13.1169   YY=            -12.3944   ZZ=            -14.0643
   XY=             -2.4653   XZ=              0.0003   YZ=             -0.0001

 Normal termination of Gaussian 09 at Sun Mar 27 12:14:32 2016.
