 Gaussian 09, Revision A.01,
 Gaussian 09:  EM64L-G09RevA.01  8-May-2009

 -----------------------
 # opt b3lyp/6-31+g(d,p)
 -----------------------

 --------------
 methanethiol-g
 --------------
 Symbolic Z-matrix:
 Charge =  0 Multiplicity = 1

 SCF Done:  E(RB3LYP) =  -438.687987195     A.U. after   10 cycles
 SCF Done:  E(RB3LYP) =  -438.705651898     A.U. after   10 cycles
 SCF Done:  E(RB3LYP) =  -438.708386647     A.U. after   11 cycles
 SCF Done:  E(RB3LYP) =  -438.708419078     A.U. after    8 cycles
 SCF Done:  E(RB3LYP) =  -438.708420554     A.U. after   11 cycles
 Optimization completed.
    -- Stationary point found.

                         Standard orientation:
 ---------------------------------------------------------------------
 Center     Atomic      Atomic             Coordinates (Angstroms)
 Number     Number       Type             X           Y           Z
 ---------------------------------------------------------------------
      1          6           0       -1.166039    0.019604    0.000000
      2         16           0        0.668058   -0.087061    0.000000
      3          1           0        0.909532    1.239781    0.000001
      4          1           0       -1.535814    0.522565   -0.895568
      5          1           0       -1.530604   -1.009555   -0.000006
      6          1           0       -1.535815    0.522554    0.895574
 ---------------------------------------------------------------------

 The electronic state is 1-A.
 Alpha  occ. eigenvalues --  -88.88265 -10.22175  -7.94399  -5.90915  -5.90555
 Alpha  occ. eigenvalues --   -5.89844  -0.78285  -0.65190  -0.45368  -0.43441
 Alpha  occ. eigenvalues --   -0.39696  -0.33736  -0.24214
 Alpha virt. eigenvalues --   -0.00956   0.00876   0.04437   0.05380   0.05433
 Alpha virt. eigenvalues --    0.08120   0.08912   0.08928   0.12023   0.13777
 Alpha virt. eigenvalues --    0.16560   0.17465   0.31071   0.46269   0.46739

 Mulliken atomic charges:
              1
     1  C   -0.555323
     2  S   -0.051467
     3  H    0.062818
     4  H    0.180991
     5  H    0.181991
     6  H    0.180991
 Sum of Mulliken atomic charges =   0.00000

 Dipole moment (field-independent basis, Debye):
    X=             -1.4519    Y=              0.9988    Z=              0.0000  Tot=              1.7623
 Quadrupole moment (field-independent basis, Debye-Ang):
   XX=            -20.5055   YY=            -19.5626   ZZ=            -22.9722
   XY=              1.4956   XZ=              0.0000   YZ=              0.0000

 Normal termination of Gaussian 09 at Sun Mar 27 12:14:08 2016.
