 Gaussian 09, Revision A.01,
 Gaussian 09:  EM64L-G09RevA.01  8-May-2009

 -----------------------
 # opt b3lyp/6-31+g(d,p)
 -----------------------

 ----------------
 methanethiol-ecl
 ----------------
 Symbolic Z-matrix:
 Charge =  0 Multiplicity = 1

 SCF Done:  E(RB3LYP) =  -438.687431034     A.U. after   10 cycles
 SCF Done:  E(RB3LYP) =  -438.704058746     A.U. after   10 cycles
 SCF Done:  E(RB3LYP) =  -438.706413003     A.U. after   10 cycles
 SCF Done:  E(RB3LYP) =  -438.706427388     A.U. after    8 cycles
 SCF Done:  E(RB3LYP) =  -438.706428251     A.U. after    7 cycles
 SCF Done:  E(RB3LYP) =  -438.706428747     A.U. after    7 cycles
 SCF Done:  E(RB3LYP) =  -438.706429116     A.U. after    8 cycles
 SCF Done:  E(RB3LYP) =  -438.706768601     A.U. after   10 cycles
 SCF Done:  E(RB3LYP) =  -438.706749526     A.U. after   11 cycles
 SCF Done:  E(RB3LYP) =  -438.707285225     A.U. after    9 cycles
 SCF Done:  E(RB3LYP) =  -438.707849223     A.U. after    9 cycles
 SCF Done:  E(RB3LYP) =  -438.708404704     A.U. after   10 cycles
 SCF Done:  E(RB3LYP) =  -438.708417276     A.U. after   11 cycles
 SCF Done:  E(RB3LYP) =  -438.708420144     A.U. after   11 cycles
 SCF Done:  E(RB3LYP) =  -438.708420603     A.U. after   11 cycles
 Optimization completed.
    -- Stationary point found.

                         Standard orientation:
 ---------------------------------------------------------------------
 Center     Atomic      Atomic             Coordinates (Angstroms)
 Number     Number       Type             X           Y           Z
 ---------------------------------------------------------------------
      1          6           0        1.165828    0.019663   -0.000004
      2         16           0       -0.667956   -0.087080   -0.000001
      3          1           0       -0.910036    1.239585    0.000026
      4          1           0        1.535794    0.522516    0.895577
      5          1           0        1.530809   -1.009385   -0.000020
      6          1           0        1.535759    0.522591   -0.895550
 ---------------------------------------------------------------------

 The electronic state is 1-A.
 Alpha  occ. eigenvalues --  -88.88264 -10.22174  -7.94399  -5.90914  -5.90555
 Alpha  occ. eigenvalues --   -5.89844  -0.78290  -0.65190  -0.45368  -0.43441
 Alpha  occ. eigenvalues --   -0.39702  -0.33734  -0.24213
 Alpha virt. eigenvalues --   -0.00953   0.00877   0.04438   0.05380   0.05434
 Alpha virt. eigenvalues --    0.08121   0.08915   0.08928   0.12026   0.13778
 Alpha virt. eigenvalues --    0.16554   0.17466   0.31075   0.46268   0.46737

 Mulliken atomic charges:
              1
     1  C   -0.555364
     2  S   -0.051406
     3  H    0.062822
     4  H    0.180975
     5  H    0.181996
     6  H    0.180976
 Sum of Mulliken atomic charges =   0.00000

 Dipole moment (field-independent basis, Debye):
    X=              1.4516    Y=              0.9991    Z=              0.0000  Tot=              1.7622
 Quadrupole moment (field-independent basis, Debye-Ang):
   XX=            -20.5038   YY=            -19.5638   ZZ=            -22.9719
   XY=             -1.4972   XZ=              0.0000   YZ=              0.0000

 Normal termination of Gaussian 09 at Sun Mar 27 12:13:47 2016.
