 Gaussian 09, Revision A.01,
 Gaussian 09:  EM64L-G09RevA.01  8-May-2009

 -----------------------
 # opt b3lyp/6-31+g(d,p)
 -----------------------

 ------------------------
 N-methylpiperidine-ch-eq
 ------------------------
 Symbolic Z-matrix:
 Charge =  0 Multiplicity = 1

 SCF Done:  E(RB3LYP) =  -291.239307719     A.U. after   12 cycles
 SCF Done:  E(RB3LYP) =  -291.242306436     A.U. after   13 cycles
 SCF Done:  E(RB3LYP) =  -291.242363260     A.U. after    9 cycles
 SCF Done:  E(RB3LYP) =  -291.242369407     A.U. after    8 cycles
 SCF Done:  E(RB3LYP) =  -291.242369699     A.U. after    7 cycles
 Optimization completed.
    -- Stationary point found.

                         Standard orientation:
 ---------------------------------------------------------------------
 Center     Atomic      Atomic             Coordinates (Angstroms)
 Number     Number       Type             X           Y           Z
 ---------------------------------------------------------------------
      1          6           0       -1.900067   -0.000001    0.240045
      2          6           0       -1.156652   -1.259181   -0.226902
      3          6           0       -1.156654    1.259182   -0.226902
      4          6           0        0.317079   -1.211611    0.188752
      5          6           0        0.317079    1.211612    0.188750
      6          7           0        0.972744   -0.000001   -0.307662
      7          6           0        2.398718    0.000000   -0.015690
      8          1           0       -1.960924    0.000002    1.338117
      9          1           0       -2.931401   -0.000002   -0.132694
     10          1           0       -1.212234   -1.336381   -1.320325
     11          1           0       -1.622178   -2.161407    0.188380
     12          1           0       -1.622178    2.161406    0.188386
     13          1           0       -1.212237    1.336387   -1.320324
     14          1           0        0.852005   -2.079074   -0.214861
     15          1           0        0.389152   -1.273972    1.296656
     16          1           0        0.389155    1.273971    1.296655
     17          1           0        0.852008    2.079073   -0.214860
     18          1           0        2.617719    0.000001    1.071288
     19          1           0        2.867448   -0.886365   -0.455552
     20          1           0        2.867445    0.886369   -0.455550
 ---------------------------------------------------------------------

 The electronic state is 1-A.
 Alpha  occ. eigenvalues --  -14.32835 -10.20687 -10.20686 -10.20296 -10.18268
 Alpha  occ. eigenvalues --  -10.18159 -10.18157  -0.92519  -0.79501  -0.75138
 Alpha  occ. eigenvalues --   -0.69092  -0.62446  -0.61121  -0.54938  -0.48818
 Alpha  occ. eigenvalues --   -0.46039  -0.45401  -0.44249  -0.42163  -0.40354
 Alpha  occ. eigenvalues --   -0.38798  -0.38430  -0.36037  -0.34661  -0.32632
 Alpha  occ. eigenvalues --   -0.31410  -0.31352  -0.21560
 Alpha virt. eigenvalues --    0.00689   0.01709   0.02417   0.02685   0.04217
 Alpha virt. eigenvalues --    0.04684   0.05733   0.06030   0.06286   0.07646
 Alpha virt. eigenvalues --    0.08564   0.08907   0.09977   0.10314   0.10739

 Mulliken atomic charges:
              1
     1  C   -0.206570
     2  C   -0.314053
     3  C   -0.314054
     4  C   -0.247194
     5  C   -0.247194
     6  N   -0.112637
     7  C   -0.288874
     8  H    0.137286
     9  H    0.134781
    10  H    0.149382
    11  H    0.133632
    12  H    0.133632
    13  H    0.149382
    14  H    0.125798
    15  H    0.122889
    16  H    0.122889
    17  H    0.125798
    18  H    0.126951
    19  H    0.134078
    20  H    0.134078
 Sum of Mulliken atomic charges =   0.00000

 Dipole moment (field-independent basis, Debye):
    X=             -0.0975    Y=              0.0000    Z=              0.4613  Tot=              0.4715
 Quadrupole moment (field-independent basis, Debye-Ang):
   XX=            -45.3660   YY=            -45.1506   ZZ=            -48.6700
   XY=              0.0000   XZ=              0.2111   YZ=              0.0000

 Normal termination of Gaussian 09 at Sun Mar 27 19:11:47 2016.
