 Gaussian 09, Revision A.01,
 Gaussian 09:  EM64L-G09RevA.01  8-May-2009

 -----------------------
 # opt b3lyp/6-31+g(d,p)
 -----------------------

 --------------------
 N-methylazetidine-NI
 --------------------
 Symbolic Z-matrix:
 Charge =  0 Multiplicity = 1

 SCF Done:  E(RB3LYP) =  -212.545166106     A.U. after   11 cycles
 SCF Done:  E(RB3LYP) =  -212.557737268     A.U. after   10 cycles
 SCF Done:  E(RB3LYP) =  -212.560619766     A.U. after   12 cycles
 SCF Done:  E(RB3LYP) =  -212.561082555     A.U. after   10 cycles
 SCF Done:  E(RB3LYP) =  -212.562851377     A.U. after   11 cycles
 SCF Done:  E(RB3LYP) =  -212.564171985     A.U. after   11 cycles
 SCF Done:  E(RB3LYP) =  -212.564943715     A.U. after   10 cycles
 SCF Done:  E(RB3LYP) =  -212.567575960     A.U. after   10 cycles
 SCF Done:  E(RB3LYP) =  -212.569047956     A.U. after   10 cycles
 SCF Done:  E(RB3LYP) =  -212.571204893     A.U. after   12 cycles
 SCF Done:  E(RB3LYP) =  -212.571752093     A.U. after   10 cycles
 SCF Done:  E(RB3LYP) =  -212.571850951     A.U. after   12 cycles
 SCF Done:  E(RB3LYP) =  -212.571869575     A.U. after    8 cycles
 SCF Done:  E(RB3LYP) =  -212.571876538     A.U. after    8 cycles
 SCF Done:  E(RB3LYP) =  -212.571876796     A.U. after   15 cycles
 Optimization completed.
    -- Stationary point found.

                         Standard orientation:
 ---------------------------------------------------------------------
 Center     Atomic      Atomic             Coordinates (Angstroms)
 Number     Number       Type             X           Y           Z
 ---------------------------------------------------------------------
      1          7           0        0.477536    0.000000   -0.415079
      2          6           0       -1.591816    0.000000    0.036511
      3          6           0       -0.454370   -1.050408    0.049805
      4          6           0       -0.454370    1.050409    0.049805
      5          1           0       -2.284074    0.000000    0.880773
      6          1           0       -2.152976   -0.000001   -0.900885
      7          1           0       -0.535314   -1.922217   -0.609251
      8          1           0       -0.230197    1.395313    1.075596
      9          1           0       -0.535313    1.922218   -0.609251
     10          6           0        1.835277    0.000000    0.088974
     11          1           0       -0.230198   -1.395316    1.075595
     12          1           0        2.366407    0.885413   -0.277132
     13          1           0        2.366408   -0.885411   -0.277134
     14          1           0        1.884186   -0.000002    1.196660
 ---------------------------------------------------------------------

 The electronic state is 1-A.
 Alpha  occ. eigenvalues --  -14.32686 -10.21125 -10.21124 -10.20365 -10.18951
 Alpha  occ. eigenvalues --   -0.94011  -0.76308  -0.67564  -0.64474  -0.55204
 Alpha  occ. eigenvalues --   -0.48829  -0.48777  -0.44535  -0.41480  -0.39507
 Alpha  occ. eigenvalues --   -0.36016  -0.35464  -0.33061  -0.32337  -0.21818
 Alpha virt. eigenvalues --    0.01161   0.01917   0.02741   0.03309   0.04586
 Alpha virt. eigenvalues --    0.05837   0.06204   0.06622   0.07539   0.08365
 Alpha virt. eigenvalues --    0.10613   0.10806   0.12155   0.12168   0.14946

 Mulliken atomic charges:
              1
     1  N   -0.150073
     2  C   -0.198161
     3  C   -0.269628
     4  C   -0.269628
     5  H    0.141126
     6  H    0.151795
     7  H    0.135113
     8  H    0.121836
     9  H    0.135113
    10  C   -0.320064
    11  H    0.121836
    12  H    0.141292
    13  H    0.141292
    14  H    0.118153
 Sum of Mulliken atomic charges =   0.00000

 Dipole moment (field-independent basis, Debye):
    X=             -0.2405    Y=              0.0000    Z=              0.8198  Tot=              0.8544
 Quadrupole moment (field-independent basis, Debye-Ang):
   XX=            -31.6839   YY=            -32.2014   ZZ=            -34.9111
   XY=              0.0000   XZ=              0.3942   YZ=              0.0000

 Normal termination of Gaussian 09 at Sun Mar 27 19:02:02 2016.
