 Gaussian 09, Revision A.01,
 Gaussian 09:  EM64L-G09RevA.01  8-May-2009

 -----------------------
 # opt b3lyp/6-31+g(d,p)
 -----------------------

 -----------------------
 N-me-piperidine-sofa-eq
 -----------------------
 Symbolic Z-matrix:
 Charge =  0 Multiplicity = 1

 SCF Done:  E(RB3LYP) =  -291.222042656     A.U. after   12 cycles
 SCF Done:  E(RB3LYP) =  -291.227139485     A.U. after   13 cycles
 SCF Done:  E(RB3LYP) =  -291.229784984     A.U. after   13 cycles
 SCF Done:  E(RB3LYP) =  -291.231765998     A.U. after   10 cycles
 SCF Done:  E(RB3LYP) =  -291.235478878     A.U. after   10 cycles
 SCF Done:  E(RB3LYP) =  -291.241524143     A.U. after   10 cycles
 SCF Done:  E(RB3LYP) =  -291.242309955     A.U. after   13 cycles
 SCF Done:  E(RB3LYP) =  -291.242357996     A.U. after    9 cycles
 SCF Done:  E(RB3LYP) =  -291.242369288     A.U. after   13 cycles
 SCF Done:  E(RB3LYP) =  -291.242369689     A.U. after   13 cycles
 Optimization completed.
    -- Stationary point found.

                         Standard orientation:
 ---------------------------------------------------------------------
 Center     Atomic      Atomic             Coordinates (Angstroms)
 Number     Number       Type             X           Y           Z
 ---------------------------------------------------------------------
      1          6           0        1.156595   -1.259185   -0.227068
      2          6           0        1.900053    0.000000    0.239819
      3          6           0        1.156593    1.259186   -0.227067
      4          6           0       -0.317037    1.211530    0.189099
      5          7           0       -0.972664   -0.000001   -0.307196
      6          6           0       -0.317035   -1.211529    0.189099
      7          1           0        1.622360   -2.161418    0.187910
      8          1           0        1.211717   -1.336205   -1.320540
      9          1           0        2.931453    0.000000   -0.132737
     10          1           0        1.960715    0.000000    1.337923
     11          1           0        1.211717    1.336209   -1.320538
     12          1           0        1.622358    2.161417    0.187914
     13          1           0       -0.852140    2.079033   -0.214183
     14          1           0       -0.388697    1.273814    1.297058
     15          6           0       -2.398660   -0.000001   -0.016120
     16          1           0       -0.852137   -2.079034   -0.214180
     17          1           0       -0.388694   -1.273815    1.297059
     18          1           0       -2.867268   -0.886302   -0.456306
     19          1           0       -2.618533   -0.000011    1.070710
     20          1           0       -2.867265    0.886310   -0.456289
 ---------------------------------------------------------------------

 The electronic state is 1-A.
 Alpha  occ. eigenvalues --  -14.32834 -10.20687 -10.20686 -10.20297 -10.18268
 Alpha  occ. eigenvalues --  -10.18159 -10.18156  -0.92524  -0.79501  -0.75138
 Alpha  occ. eigenvalues --   -0.69094  -0.62447  -0.61120  -0.54939  -0.48821
 Alpha  occ. eigenvalues --   -0.46041  -0.45401  -0.44248  -0.42161  -0.40356
 Alpha  occ. eigenvalues --   -0.38800  -0.38432  -0.36035  -0.34659  -0.32632
 Alpha  occ. eigenvalues --   -0.31411  -0.31353  -0.21557
 Alpha virt. eigenvalues --    0.00689   0.01709   0.02417   0.02685   0.04216
 Alpha virt. eigenvalues --    0.04684   0.05733   0.06029   0.06286   0.07644
 Alpha virt. eigenvalues --    0.08564   0.08907   0.09977   0.10314   0.10737

 Mulliken atomic charges:
              1
     1  C   -0.313888
     2  C   -0.206464
     3  C   -0.313889
     4  C   -0.247394
     5  N   -0.112452
     6  C   -0.247392
     7  H    0.133622
     8  H    0.149378
     9  H    0.134773
    10  H    0.137279
    11  H    0.149378
    12  H    0.133622
    13  H    0.125780
    14  H    0.122880
    15  C   -0.288978
    16  H    0.125780
    17  H    0.122880
    18  H    0.134074
    19  H    0.126934
    20  H    0.134074
 Sum of Mulliken atomic charges =   0.00000

 Dipole moment (field-independent basis, Debye):
    X=              0.0970    Y=              0.0000    Z=              0.4600  Tot=              0.4701
 Quadrupole moment (field-independent basis, Debye-Ang):
   XX=            -45.3664   YY=            -45.1516   ZZ=            -48.6693
   XY=              0.0000   XZ=             -0.2088   YZ=              0.0000

 Normal termination of Gaussian 09 at Sun Mar 27 13:26:16 2016.
