 Gaussian 09, Revision A.01,
 Gaussian 09:  EM64L-G09RevA.01  8-May-2009

 -----------------------
 # opt b3lyp/6-31+g(d,p)
 -----------------------

 -------------------------
 N-me-piperidine ch-eq-nlp
 -------------------------
 Symbolic Z-matrix:
 Charge =  0 Multiplicity = 1

 SCF Done:  E(RB3LYP) =  -291.239417818     A.U. after   12 cycles
 SCF Done:  E(RB3LYP) =  -291.242310151     A.U. after   13 cycles
 SCF Done:  E(RB3LYP) =  -291.242363607     A.U. after   13 cycles
 SCF Done:  E(RB3LYP) =  -291.242369431     A.U. after   13 cycles
 Optimization completed.
    -- Stationary point found.

                         Standard orientation:
 ---------------------------------------------------------------------
 Center     Atomic      Atomic             Coordinates (Angstroms)
 Number     Number       Type             X           Y           Z
 ---------------------------------------------------------------------
      1          6           0        1.900201    0.000024    0.240099
      2          6           0        1.156737    1.259193   -0.226828
      3          6           0        1.156787   -1.259176   -0.226814
      4          6           0       -0.317209    1.211569    0.188441
      5          6           0       -0.317171   -1.211580    0.188413
      6          7           0       -0.972837   -0.000008   -0.307270
      7          6           0       -2.398696   -0.000015   -0.015659
      8          1           0        1.961163    0.000025    1.338146
      9          1           0        2.931470    0.000037   -0.132677
     10          1           0        1.212736    1.336444   -1.320217
     11          1           0        1.621553    2.161623    0.188779
     12          1           0        1.621632   -2.161563    0.188862
     13          1           0        1.212824   -1.336454   -1.320193
     14          1           0       -0.852170    2.078845   -0.215495
     15          1           0       -0.389292    1.274736    1.296384
     16          1           0       -0.389260   -1.274790    1.296364
     17          1           0       -0.852103   -2.078864   -0.215534
     18          1           0       -2.617849   -0.000004    1.071317
     19          1           0       -2.867390    0.886451   -0.455398
     20          1           0       -2.867353   -0.886512   -0.455368
 ---------------------------------------------------------------------

 The electronic state is 1-A.
 Alpha  occ. eigenvalues --  -14.32833 -10.20687 -10.20686 -10.20297 -10.18269
 Alpha  occ. eigenvalues --  -10.18161 -10.18158  -0.92528  -0.79502  -0.75139
 Alpha  occ. eigenvalues --   -0.69095  -0.62451  -0.61123  -0.54934  -0.48820
 Alpha  occ. eigenvalues --   -0.46043  -0.45405  -0.44249  -0.42163  -0.40358
 Alpha  occ. eigenvalues --   -0.38799  -0.38427  -0.36039  -0.34660  -0.32631
 Alpha  occ. eigenvalues --   -0.31416  -0.31353  -0.21554
 Alpha virt. eigenvalues --    0.00688   0.01710   0.02417   0.02685   0.04216
 Alpha virt. eigenvalues --    0.04684   0.05733   0.06030   0.06286   0.07647
 Alpha virt. eigenvalues --    0.08563   0.08909   0.09977   0.10313   0.10740

 Mulliken atomic charges:
              1
     1  C   -0.206412
     2  C   -0.314240
     3  C   -0.314245
     4  C   -0.247225
     5  C   -0.247229
     6  N   -0.112211
     7  C   -0.288849
     8  H    0.137292
     9  H    0.134799
    10  H    0.149363
    11  H    0.133646
    12  H    0.133647
    13  H    0.149363
    14  H    0.125781
    15  H    0.122840
    16  H    0.122837
    17  H    0.125782
    18  H    0.126939
    19  H    0.134063
    20  H    0.134061
 Sum of Mulliken atomic charges =   0.00000

 Dipole moment (field-independent basis, Debye):
    X=              0.0976    Y=              0.0000    Z=              0.4595  Tot=              0.4697
 Quadrupole moment (field-independent basis, Debye-Ang):
   XX=            -45.3666   YY=            -45.1502   ZZ=            -48.6714
   XY=             -0.0001   XZ=             -0.2096   YZ=              0.0000

 Normal termination of Gaussian 09 at Sun Mar 27 12:46:18 2016.
