 Gaussian 09, Revision A.01,
 Gaussian 09:  EM64L-G09RevA.01  8-May-2009

 -----------------------
 # opt b3lyp/6-31+g(d,p)
 -----------------------

 ----------------------
 N-me-pyrrolidine-eq-lp
 ----------------------
 Symbolic Z-matrix:
 Charge =  0 Multiplicity = 1

 SCF Done:  E(RB3LYP) =  -251.915254669     A.U. after   12 cycles
 SCF Done:  E(RB3LYP) =  -251.918091877     A.U. after   10 cycles
 SCF Done:  E(RB3LYP) =  -251.918118012     A.U. after   15 cycles
 SCF Done:  E(RB3LYP) =  -251.918120275     A.U. after    8 cycles
 Optimization completed.
    -- Stationary point found.

                         Standard orientation:
 ---------------------------------------------------------------------
 Center     Atomic      Atomic             Coordinates (Angstroms)
 Number     Number       Type             X           Y           Z
 ---------------------------------------------------------------------
      1          6           0       -1.498861    0.779127   -0.057548
      2          6           0       -1.498765   -0.779176   -0.058012
      3          6           0       -0.021790   -1.158718    0.161100
      4          6           0       -0.021728    1.158789    0.160741
      5          7           0        0.714715   -0.000053   -0.344336
      6          6           0        2.130221   -0.000022   -0.023961
      7          1           0       -1.855217   -1.163218   -1.018202
      8          1           0       -2.140536   -1.198921    0.722363
      9          1           0        0.279255   -2.068959   -0.368781
     10          1           0        0.177973   -1.317918    1.241608
     11          1           0        0.178443    1.318603    1.241082
     12          1           0        0.279076    2.068786   -0.369705
     13          1           0        2.320933    0.000237    1.068531
     14          1           0        2.609395   -0.885937   -0.453291
     15          1           0        2.609445    0.885683   -0.453682
     16          1           0       -2.139989    1.198265    0.723675
     17          1           0       -1.856246    1.163748   -1.017159
 ---------------------------------------------------------------------

 The electronic state is 1-A.
 Alpha  occ. eigenvalues --  -14.32767 -10.20659 -10.20658 -10.20371 -10.18452
 Alpha  occ. eigenvalues --  -10.18435  -0.93138  -0.77899  -0.72264  -0.67357
 Alpha  occ. eigenvalues --   -0.58005  -0.57331  -0.49036  -0.48530  -0.44408
 Alpha  occ. eigenvalues --   -0.42908  -0.40745  -0.37989  -0.35993  -0.35914
 Alpha  occ. eigenvalues --   -0.34214  -0.33604  -0.32116  -0.21599
 Alpha virt. eigenvalues --    0.00877   0.02219   0.02961   0.03048   0.04669
 Alpha virt. eigenvalues --    0.04731   0.05955   0.06392   0.06543   0.08423
 Alpha virt. eigenvalues --    0.09011   0.10297   0.10921   0.10986   0.12431

 Mulliken atomic charges:
              1
     1  C   -0.294854
     2  C   -0.295210
     3  C   -0.244251
     4  C   -0.244496
     5  N   -0.117635
     6  C   -0.291621
     7  H    0.149268
     8  H    0.140134
     9  H    0.133282
    10  H    0.122379
    11  H    0.122372
    12  H    0.133283
    13  H    0.123599
    14  H    0.137175
    15  H    0.137179
    16  H    0.140149
    17  H    0.149246
 Sum of Mulliken atomic charges =   0.00000

 Dipole moment (field-independent basis, Debye):
    X=             -0.1384    Y=              0.0000    Z=              0.5348  Tot=              0.5524
 Quadrupole moment (field-independent basis, Debye-Ang):
   XX=            -38.5695   YY=            -38.6430   ZZ=            -41.6330
   XY=             -0.0002   XZ=             -0.0096   YZ=             -0.0006

 Normal termination of Gaussian 09 at Sun Mar 27 13:28:40 2016.
