 Gaussian 09, Revision A.01,
 Gaussian 09:  EM64L-G09RevA.01  8-May-2009

 -----------------------
 # opt b3lyp/6-31+g(d,p)
 -----------------------

 -------------------------
 N-me-spiro[pip2,2'adam]-b
 -------------------------
 Symbolic Z-matrix:
 Charge =  0 Multiplicity = 1

 SCF Done:  E(RB3LYP) =  -641.420407381     A.U. after   14 cycles
 SCF Done:  E(RB3LYP) =  -641.431192360     A.U. after   12 cycles
 SCF Done:  E(RB3LYP) =  -641.433683253     A.U. after   13 cycles
 SCF Done:  E(RB3LYP) =  -641.434276258     A.U. after   12 cycles
 SCF Done:  E(RB3LYP) =  -641.437925917     A.U. after   11 cycles
 SCF Done:  E(RB3LYP) =  -641.440670691     A.U. after   13 cycles
 SCF Done:  E(RB3LYP) =  -641.442055217     A.U. after   12 cycles
 SCF Done:  E(RB3LYP) =  -641.443123870     A.U. after   12 cycles
 SCF Done:  E(RB3LYP) =  -641.443111622     A.U. after   12 cycles
 SCF Done:  E(RB3LYP) =  -641.443819304     A.U. after   12 cycles
 SCF Done:  E(RB3LYP) =  -641.444020972     A.U. after   11 cycles
 SCF Done:  E(RB3LYP) =  -641.444071754     A.U. after   11 cycles
 SCF Done:  E(RB3LYP) =  -641.444097821     A.U. after   11 cycles
 SCF Done:  E(RB3LYP) =  -641.444115150     A.U. after   11 cycles
 SCF Done:  E(RB3LYP) =  -641.444119488     A.U. after   10 cycles
 SCF Done:  E(RB3LYP) =  -641.444120176     A.U. after    9 cycles
 SCF Done:  E(RB3LYP) =  -641.444120092     A.U. after    9 cycles
 Optimization completed.
    -- Stationary point found.

                         Standard orientation:
 ---------------------------------------------------------------------
 Center     Atomic      Atomic             Coordinates (Angstroms)
 Number     Number       Type             X           Y           Z
 ---------------------------------------------------------------------
      1          6           0        2.391614   -1.197080   -0.201445
      2          6           0        1.528491   -0.975451   -1.460262
      3          6           0        0.516408    0.174711   -1.226212
      4          6           0       -0.452190   -0.153679   -0.039230
      5          6           0        0.478174   -0.337740    1.216067
      6          6           0        1.466429   -1.507859    0.991505
      7          6           0        1.286951    0.942091    1.510018
      8          6           0        2.218840    1.252875    0.322355
      9          6           0        1.352953    1.451346   -0.937474
     10          6           0        3.196194    0.082391    0.100321
     11          6           0       -1.271558   -1.480512   -0.265915
     12          6           0       -2.742957   -1.263979   -0.651268
     13          6           0       -3.485193   -0.416068    0.403471
     14          6           0       -2.503004    0.572280    1.087341
     15          7           0       -1.392204    0.987546    0.224180
     16          6           0       -1.889361    1.787328   -0.898213
     17          1           0        3.077266   -2.038199   -0.369184
     18          1           0        1.025734   -1.906683   -1.742718
     19          1           0        2.169809   -0.705387   -2.309999
     20          1           0       -0.067196    0.314049   -2.145362
     21          1           0       -0.147003   -0.574451    2.085917
     22          1           0        0.934428   -2.451070    0.821921
     23          1           0        2.065049   -1.649516    1.901531
     24          1           0        1.876026    0.797864    2.426296
     25          1           0        0.603269    1.778994    1.683570
     26          1           0        2.782617    2.173296    0.524189
     27          1           0        1.993454    1.655773   -1.806764
     28          1           0        0.719332    2.330014   -0.796522
     29          1           0        3.874651    0.309048   -0.733798
     30          1           0        3.821420   -0.065392    0.991619
     31          1           0       -1.255166   -2.068242    0.662295
     32          1           0       -0.795923   -2.112017   -1.020069
     33          1           0       -3.231105   -2.238662   -0.768578
     34          1           0       -2.799570   -0.782814   -1.633819
     35          1           0       -3.932422   -1.064612    1.168097
     36          1           0       -4.315921    0.123969   -0.065646
     37          1           0       -2.082225    0.106871    1.983974
     38          1           0       -3.031666    1.470143    1.428698
     39          1           0       -2.496479    2.599713   -0.482166
     40          1           0       -1.075453    2.251844   -1.453643
     41          1           0       -2.518251    1.248719   -1.625433
 ---------------------------------------------------------------------

 The electronic state is 1-A.
 Alpha  occ. eigenvalues --  -14.31974 -10.21898 -10.20194 -10.19783 -10.18722
 Alpha  occ. eigenvalues --  -10.18239 -10.18067 -10.17925 -10.17908 -10.17832
 Alpha  occ. eigenvalues --  -10.17738 -10.17666 -10.17437 -10.17320 -10.17301
 Alpha  occ. eigenvalues --  -10.16626  -0.91872  -0.85727  -0.78509  -0.76713
 Alpha  occ. eigenvalues --   -0.76363  -0.76064  -0.71103  -0.69042  -0.65981
 Alpha  occ. eigenvalues --   -0.63295  -0.61802  -0.58228  -0.57933  -0.57090
 Alpha  occ. eigenvalues --   -0.53732  -0.50895  -0.48315  -0.48085  -0.45731
 Alpha  occ. eigenvalues --   -0.45202  -0.44135  -0.42990  -0.42819  -0.41763
 Alpha  occ. eigenvalues --   -0.41269  -0.40168  -0.39299  -0.38932  -0.38807
 Alpha  occ. eigenvalues --   -0.38224  -0.37795  -0.36849  -0.35419  -0.35010
 Alpha  occ. eigenvalues --   -0.33833  -0.32842  -0.32251  -0.32101  -0.32022
 Alpha  occ. eigenvalues --   -0.30881  -0.30764  -0.27919  -0.27653  -0.27251
 Alpha  occ. eigenvalues --   -0.19940
 Alpha virt. eigenvalues --   -0.00505   0.00821   0.01177   0.01388   0.02726
 Alpha virt. eigenvalues --    0.02841   0.03007   0.03133   0.03648   0.04920
 Alpha virt. eigenvalues --    0.05309   0.05766   0.05993   0.06194   0.06934

 Mulliken atomic charges:
              1
     1  C    0.157666
     2  C   -0.563210
     3  C    0.158248
     4  C   -1.525186
     5  C    0.517936
     6  C   -0.559958
     7  C   -0.417344
     8  C    0.225708
     9  C   -0.354830
    10  C   -0.460328
    11  C    0.109578
    12  C   -0.286730
    13  C   -0.421567
    14  C    0.146623
    15  N    0.178161
    16  C   -0.157580
    17  H    0.113444
    18  H    0.125570
    19  H    0.134055
    20  H    0.126218
    21  H    0.106872
    22  H    0.134335
    23  H    0.132088
    24  H    0.126582
    25  H    0.156243
    26  H    0.112407
    27  H    0.129301
    28  H    0.126869
    29  H    0.128112
    30  H    0.128977
    31  H    0.149935
    32  H    0.131009
    33  H    0.133339
    34  H    0.133793
    35  H    0.136376
    36  H    0.139130
    37  H    0.133435
    38  H    0.129265
    39  H    0.134539
    40  H    0.126108
    41  H    0.124810
 Sum of Mulliken atomic charges =   0.00000

 Dipole moment (field-independent basis, Debye):
    X=             -0.3995    Y=             -0.4275    Z=             -0.3799  Tot=              0.6976
 Quadrupole moment (field-independent basis, Debye-Ang):
   XX=           -101.7759   YY=           -102.7320   ZZ=           -102.1423
   XY=             -0.3579   XZ=             -0.4337   YZ=             -1.1438

 Normal termination of Gaussian 09 at Sun Mar 27 17:16:20 2016.
