 Gaussian 09, Revision A.01,
 Gaussian 09:  EM64L-G09RevA.01  8-May-2009

 -----------------------
 # opt b3lyp/6-31+g(d,p)
 -----------------------

 -----------------------
 N-me-piperidine-sofa-ax
 -----------------------
 Symbolic Z-matrix:
 Charge =  0 Multiplicity = 1

 SCF Done:  E(RB3LYP) =  -291.216055197     A.U. after   12 cycles
 SCF Done:  E(RB3LYP) =  -291.221779539     A.U. after   10 cycles
 SCF Done:  E(RB3LYP) =  -291.223973993     A.U. after   10 cycles
 SCF Done:  E(RB3LYP) =  -291.226153872     A.U. after   10 cycles
 SCF Done:  E(RB3LYP) =  -291.229559752     A.U. after   10 cycles
 SCF Done:  E(RB3LYP) =  -291.234972655     A.U. after   11 cycles
 SCF Done:  E(RB3LYP) =  -291.235872561     A.U. after   10 cycles
 SCF Done:  E(RB3LYP) =  -291.236067495     A.U. after   13 cycles
 SCF Done:  E(RB3LYP) =  -291.236083336     A.U. after    8 cycles
 SCF Done:  E(RB3LYP) =  -291.236083750     A.U. after    7 cycles
 Optimization completed.
    -- Stationary point found.

                         Standard orientation:
 ---------------------------------------------------------------------
 Center     Atomic      Atomic             Coordinates (Angstroms)
 Number     Number       Type             X           Y           Z
 ---------------------------------------------------------------------
      1          6           0        0.937492   -1.265330   -0.321738
      2          6           0        1.797671    0.000002   -0.162580
      3          6           0        0.937488    1.265330   -0.321736
      4          6           0       -0.281289    1.209954    0.620339
      5          7           0       -1.100830   -0.000003    0.478103
      6          6           0       -0.281284   -1.209948    0.620342
      7          1           0        1.528034   -2.165004   -0.105702
      8          1           0        0.600755   -1.354180   -1.363553
      9          1           0        2.625420    0.000006   -0.882104
     10          1           0        2.253235    0.000000    0.839232
     11          1           0        0.600750    1.354178   -1.363551
     12          1           0        1.528029    2.165006   -0.105705
     13          1           0       -0.926991    2.083629    0.474229
     14          1           0        0.073676    1.245681    1.660922
     15          6           0       -1.958198   -0.000004   -0.702631
     16          1           0       -0.926979   -2.083632    0.474249
     17          1           0        0.073694   -1.245667    1.660923
     18          1           0       -2.603974    0.884463   -0.677922
     19          1           0       -1.427190    0.000031   -1.671756
     20          1           0       -2.603922   -0.884510   -0.677959
 ---------------------------------------------------------------------

 The electronic state is 1-A.
 Alpha  occ. eigenvalues --  -14.32318 -10.20506 -10.20505 -10.20153 -10.18356
 Alpha  occ. eigenvalues --  -10.18093 -10.18092  -0.91942  -0.78933  -0.74854
 Alpha  occ. eigenvalues --   -0.69574  -0.62288  -0.61225  -0.54892  -0.48543
 Alpha  occ. eigenvalues --   -0.46583  -0.44829  -0.43909  -0.41366  -0.41007
 Alpha  occ. eigenvalues --   -0.38268  -0.36965  -0.36297  -0.34228  -0.34183
 Alpha  occ. eigenvalues --   -0.32051  -0.31470  -0.20292
 Alpha virt. eigenvalues --    0.00382   0.02059   0.02155   0.02345   0.04229
 Alpha virt. eigenvalues --    0.04536   0.05283   0.05939   0.06370   0.08211
 Alpha virt. eigenvalues --    0.08820   0.08835   0.09518   0.09559   0.10317

 Mulliken atomic charges:
              1
     1  C   -0.179038
     2  C   -0.331074
     3  C   -0.179036
     4  C   -0.238356
     5  N   -0.175082
     6  C   -0.238357
     7  H    0.131818
     8  H    0.136281
     9  H    0.134828
    10  H    0.136865
    11  H    0.136280
    12  H    0.131819
    13  H    0.125172
    14  H    0.133643
    15  C   -0.379482
    16  H    0.125171
    17  H    0.133643
    18  H    0.134395
    19  H    0.126117
    20  H    0.134393
 Sum of Mulliken atomic charges =   0.00000

 Dipole moment (field-independent basis, Debye):
    X=              0.5981    Y=              0.0000    Z=             -0.6899  Tot=              0.9130
 Quadrupole moment (field-independent basis, Debye-Ang):
   XX=            -47.5410   YY=            -45.1731   ZZ=            -47.5538
   XY=              0.0000   XZ=              2.2979   YZ=              0.0000

 Normal termination of Gaussian 09 at Sun Mar 27 13:15:49 2016.
