 Gaussian 09, Revision A.01,
 Gaussian 09:  EM64L-G09RevA.01  8-May-2009

 -----------------------
 # opt b3lyp/6-31+g(d,p)
 -----------------------

 -------------------------
 N-me-spiro[pip2,2'adam]ch
 -------------------------
 Symbolic Z-matrix:
 Charge =  0 Multiplicity = 1

 SCF Done:  E(RB3LYP) =  -641.444941244     A.U. after   14 cycles
 SCF Done:  E(RB3LYP) =  -641.453711698     A.U. after   12 cycles
 SCF Done:  E(RB3LYP) =  -641.454911648     A.U. after   12 cycles
 SCF Done:  E(RB3LYP) =  -641.454906122     A.U. after   11 cycles
 SCF Done:  E(RB3LYP) =  -641.455237648     A.U. after   12 cycles
 SCF Done:  E(RB3LYP) =  -641.455241884     A.U. after   10 cycles
 SCF Done:  E(RB3LYP) =  -641.455244658     A.U. after   10 cycles
 SCF Done:  E(RB3LYP) =  -641.455244487     A.U. after    9 cycles
 Optimization completed.
    -- Stationary point found.

                         Standard orientation:
 ---------------------------------------------------------------------
 Center     Atomic      Atomic             Coordinates (Angstroms)
 Number     Number       Type             X           Y           Z
 ---------------------------------------------------------------------
      1          6           0       -2.365837   -1.136463   -0.381242
      2          6           0       -1.304115   -1.732651    0.562854
      3          6           0       -0.294188   -0.639407    0.987313
      4          6           0        0.463421   -0.048774   -0.256923
      5          6           0       -0.647414    0.540948   -1.186740
      6          6           0       -1.658342   -0.549033   -1.617402
      7          6           0       -1.431650    1.659198   -0.459316
      8          6           0       -2.132662    1.081303    0.787104
      9          6           0       -1.066539    0.477489    1.724298
     10          6           0       -3.127994   -0.015572    0.355120
     11          6           0        1.309221   -1.126558   -0.996300
     12          6           0        2.486128   -1.656591   -0.154662
     13          6           0        3.355643   -0.509543    0.381675
     14          6           0        2.473420    0.559760    1.050658
     15          7           0        1.378763    1.050307    0.199781
     16          6           0        1.878197    1.945279   -0.845373
     17          1           0       -3.067934   -1.921043   -0.693266
     18          1           0       -0.797191   -2.578587    0.084402
     19          1           0       -1.787233   -2.133095    1.464390
     20          1           0        0.420617   -1.092985    1.680751
     21          1           0       -0.179898    0.943903   -2.092903
     22          1           0       -1.166186   -1.343478   -2.190104
     23          1           0       -2.397185   -0.094743   -2.291407
     24          1           0       -2.176589    2.081440   -1.147955
     25          1           0       -0.764891    2.473043   -0.159787
     26          1           0       -2.670961    1.883292    1.309406
     27          1           0       -1.547132    0.055498    2.617784
     28          1           0       -0.375017    1.257699    2.056656
     29          1           0       -3.646104   -0.425760    1.232969
     30          1           0       -3.899240    0.410273   -0.301612
     31          1           0        1.703180   -0.675506   -1.917720
     32          1           0        0.692084   -1.968145   -1.320508
     33          1           0        3.089475   -2.344598   -0.759763
     34          1           0        2.102778   -2.248504    0.687596
     35          1           0        3.920532   -0.058115   -0.444994
     36          1           0        4.096981   -0.884208    1.099317
     37          1           0        3.077623    1.424256    1.349712
     38          1           0        2.046132    0.153222    1.974656
     39          1           0        1.063081    2.514588   -1.297538
     40          1           0        2.555272    2.669741   -0.381255
     41          1           0        2.432736    1.453359   -1.663665
 ---------------------------------------------------------------------

 The electronic state is 1-A.
 Alpha  occ. eigenvalues --  -14.31971 -10.21686 -10.20244 -10.19870 -10.18327
 Alpha  occ. eigenvalues --  -10.18222 -10.18152 -10.18101 -10.17882 -10.17870
 Alpha  occ. eigenvalues --  -10.17633 -10.17617 -10.17564 -10.17295 -10.17052
 Alpha  occ. eigenvalues --  -10.16787  -0.91975  -0.85656  -0.78812  -0.76898
 Alpha  occ. eigenvalues --   -0.76232  -0.76053  -0.71473  -0.68567  -0.65941
 Alpha  occ. eigenvalues --   -0.63095  -0.61731  -0.59124  -0.57477  -0.57110
 Alpha  occ. eigenvalues --   -0.54182  -0.51301  -0.48229  -0.46181  -0.45603
 Alpha  occ. eigenvalues --   -0.45057  -0.44443  -0.43080  -0.42714  -0.42200
 Alpha  occ. eigenvalues --   -0.41334  -0.41102  -0.39308  -0.39016  -0.38772
 Alpha  occ. eigenvalues --   -0.38434  -0.37902  -0.36838  -0.35227  -0.34829
 Alpha  occ. eigenvalues --   -0.34113  -0.32784  -0.32278  -0.32141  -0.32024
 Alpha  occ. eigenvalues --   -0.31214  -0.30743  -0.27951  -0.27639  -0.27100
 Alpha  occ. eigenvalues --   -0.20024
 Alpha virt. eigenvalues --   -0.00466   0.00814   0.01177   0.01344   0.02668
 Alpha virt. eigenvalues --    0.02901   0.02981   0.03147   0.03642   0.05146
 Alpha virt. eigenvalues --    0.05485   0.05840   0.05965   0.06046   0.07072

 Mulliken atomic charges:
              1
     1  C    0.213057
     2  C   -0.605500
     3  C    0.563680
     4  C   -1.534769
     5  C    0.377933
     6  C   -0.645567
     7  C   -0.398960
     8  C    0.207596
     9  C   -0.454779
    10  C   -0.471242
    11  C    0.063909
    12  C   -0.315690
    13  C   -0.312062
    14  C    0.092128
    15  N    0.117898
    16  C   -0.160130
    17  H    0.113091
    18  H    0.131272
    19  H    0.132006
    20  H    0.115387
    21  H    0.120481
    22  H    0.133215
    23  H    0.133222
    24  H    0.127094
    25  H    0.140676
    26  H    0.112601
    27  H    0.126142
    28  H    0.154611
    29  H    0.129080
    30  H    0.128699
    31  H    0.137270
    32  H    0.131909
    33  H    0.132800
    34  H    0.140433
    35  H    0.137767
    36  H    0.129914
    37  H    0.124066
    38  H    0.133831
    39  H    0.134611
    40  H    0.131242
    41  H    0.131078
 Sum of Mulliken atomic charges =   0.00000

 Dipole moment (field-independent basis, Debye):
    X=              0.4900    Y=             -0.3848    Z=             -0.3330  Tot=              0.7064
 Quadrupole moment (field-independent basis, Debye-Ang):
   XX=           -101.3455   YY=           -102.8013   ZZ=           -102.3520
   XY=              0.5277   XZ=              0.3368   YZ=             -1.1051

 Normal termination of Gaussian 09 at Sun Mar 27 18:54:57 2016.
