 Gaussian 09, Revision A.01,
 Gaussian 09:  EM64L-G09RevA.01  8-May-2009

 -----------------------
 # opt b3lyp/6-31+g(d,p)
 -----------------------

 -----------------------
 N-me-pyrrolidine-NI-nlp
 -----------------------
 Symbolic Z-matrix:
 Charge =  0 Multiplicity = 1

 SCF Done:  E(RB3LYP) =  -251.905050227     A.U. after   11 cycles
 SCF Done:  E(RB3LYP) =  -251.909419265     A.U. after   10 cycles
 SCF Done:  E(RB3LYP) =  -251.909767124     A.U. after   10 cycles
 SCF Done:  E(RB3LYP) =  -251.910802794     A.U. after   13 cycles
 SCF Done:  E(RB3LYP) =  -251.857479123     A.U. after   11 cycles
 SCF Done:  E(RB3LYP) =  -251.911052862     A.U. after   11 cycles
 SCF Done:  E(RB3LYP) =  -251.912724019     A.U. after   11 cycles
 SCF Done:  E(RB3LYP) =  -251.915113942     A.U. after   11 cycles
 SCF Done:  E(RB3LYP) =  -251.915305932     A.U. after   11 cycles
 SCF Done:  E(RB3LYP) =  -251.916469775     A.U. after   10 cycles
 SCF Done:  E(RB3LYP) =  -251.915679740     A.U. after   13 cycles
 SCF Done:  E(RB3LYP) =  -251.917817237     A.U. after   13 cycles
 SCF Done:  E(RB3LYP) =  -251.918030261     A.U. after    9 cycles
 SCF Done:  E(RB3LYP) =  -251.918102910     A.U. after    9 cycles
 SCF Done:  E(RB3LYP) =  -251.918109984     A.U. after    8 cycles
 SCF Done:  E(RB3LYP) =  -251.918117495     A.U. after    9 cycles
 SCF Done:  E(RB3LYP) =  -251.918119241     A.U. after    8 cycles
 SCF Done:  E(RB3LYP) =  -251.918120014     A.U. after   15 cycles
 SCF Done:  E(RB3LYP) =  -251.918120335     A.U. after    7 cycles
 SCF Done:  E(RB3LYP) =  -251.918120424     A.U. after    7 cycles
 Optimization completed.
    -- Stationary point found.

                         Standard orientation:
 ---------------------------------------------------------------------
 Center     Atomic      Atomic             Coordinates (Angstroms)
 Number     Number       Type             X           Y           Z
 ---------------------------------------------------------------------
      1          6           0       -1.498816    0.779244   -0.057856
      2          6           0       -1.498829   -0.779240   -0.057849
      3          6           0       -0.021812   -1.158521    0.161074
      4          6           0       -0.021798    1.158554    0.161095
      5          7           0        0.714809   -0.000029   -0.344338
      6          6           0        2.130195   -0.000008   -0.024111
      7          1           0       -1.855715   -1.163440   -1.017852
      8          1           0       -2.140618   -1.198614    0.722713
      9          1           0        0.279165   -2.068811   -0.368788
     10          1           0        0.178242   -1.317759    1.241600
     11          1           0        0.178292    1.317790    1.241591
     12          1           0        0.279210    2.068779   -0.368848
     13          1           0        2.321189   -0.000411    1.068390
     14          1           0        2.609695   -0.885519   -0.453990
     15          1           0        2.609509    0.885937   -0.453294
     16          1           0       -2.140660    1.198651    0.722630
     17          1           0       -1.855614    1.163426   -1.017902
 ---------------------------------------------------------------------

 The electronic state is 1-A.
 Alpha  occ. eigenvalues --  -14.32768 -10.20659 -10.20658 -10.20373 -10.18454
 Alpha  occ. eigenvalues --  -10.18436  -0.93143  -0.77900  -0.72264  -0.67359
 Alpha  occ. eigenvalues --   -0.58006  -0.57331  -0.49037  -0.48533  -0.44408
 Alpha  occ. eigenvalues --   -0.42908  -0.40743  -0.37991  -0.36000  -0.35909
 Alpha  occ. eigenvalues --   -0.34208  -0.33609  -0.32116  -0.21601
 Alpha virt. eigenvalues --    0.00877   0.02218   0.02961   0.03047   0.04669
 Alpha virt. eigenvalues --    0.04730   0.05956   0.06391   0.06544   0.08423
 Alpha virt. eigenvalues --    0.09010   0.10296   0.10920   0.10986   0.12433

 Mulliken atomic charges:
              1
     1  C   -0.294988
     2  C   -0.295053
     3  C   -0.244365
     4  C   -0.244455
     5  N   -0.117551
     6  C   -0.291652
     7  H    0.149254
     8  H    0.140145
     9  H    0.133268
    10  H    0.122379
    11  H    0.122397
    12  H    0.133273
    13  H    0.123579
    14  H    0.137191
    15  H    0.137178
    16  H    0.140145
    17  H    0.149255
 Sum of Mulliken atomic charges =   0.00000

 Dipole moment (field-independent basis, Debye):
    X=             -0.1386    Y=              0.0002    Z=              0.5344  Tot=              0.5521
 Quadrupole moment (field-independent basis, Debye-Ang):
   XX=            -38.5655   YY=            -38.6453   ZZ=            -41.6346
   XY=              0.0004   XZ=             -0.0098   YZ=              0.0002

 Normal termination of Gaussian 09 at Sun Mar 27 13:45:00 2016.
