 Gaussian 09, Revision A.01,
 Gaussian 09:  EM64L-G09RevA.01  8-May-2009

 -----------------------
 # opt b3lyp/6-31+g(d,p)
 -----------------------

 ------------------------
 N-methylpiperidine-ch-ax
 ------------------------
 Symbolic Z-matrix:
 Charge =  0 Multiplicity = 1

 SCF Done:  E(RB3LYP) =  -291.232318978     A.U. after   12 cycles
 SCF Done:  E(RB3LYP) =  -291.235940240     A.U. after   13 cycles
 SCF Done:  E(RB3LYP) =  -291.236075076     A.U. after   13 cycles
 SCF Done:  E(RB3LYP) =  -291.236083247     A.U. after   16 cycles
 SCF Done:  E(RB3LYP) =  -291.236083684     A.U. after   16 cycles
 Optimization completed.
    -- Stationary point found.

                         Standard orientation:
 ---------------------------------------------------------------------
 Center     Atomic      Atomic             Coordinates (Angstroms)
 Number     Number       Type             X           Y           Z
 ---------------------------------------------------------------------
      1          6           0        1.797607   -0.000001   -0.162704
      2          6           0        0.937407    1.265345   -0.321697
      3          6           0        0.937410   -1.265345   -0.321696
      4          6           0       -0.281303    1.209938    0.620497
      5          6           0       -0.281305   -1.209936    0.620497
      6          7           0       -1.100922    0.000001    0.478224
      7          6           0       -1.957956   -0.000002   -0.702921
      8          1           0        2.253457    0.000002    0.838978
      9          1           0        2.625161    0.000002   -0.882481
     10          1           0        0.600594    1.354252   -1.363487
     11          1           0        1.528039    2.164971   -0.105649
     12          1           0        1.528037   -2.164975   -0.105644
     13          1           0        0.600596   -1.354254   -1.363485
     14          1           0       -0.927073    2.083561    0.474379
     15          1           0        0.073680    1.245616    1.661079
     16          1           0        0.073678   -1.245617    1.661079
     17          1           0       -0.927071   -2.083560    0.474378
     18          1           0       -1.426511   -0.000042   -1.671793
     19          1           0       -2.603677   -0.884499   -0.678362
     20          1           0       -2.603620    0.884538   -0.678409
 ---------------------------------------------------------------------

 The electronic state is 1-A.
 Alpha  occ. eigenvalues --  -14.32319 -10.20506 -10.20505 -10.20154 -10.18356
 Alpha  occ. eigenvalues --  -10.18094 -10.18092  -0.91940  -0.78932  -0.74853
 Alpha  occ. eigenvalues --   -0.69573  -0.62287  -0.61225  -0.54891  -0.48542
 Alpha  occ. eigenvalues --   -0.46583  -0.44830  -0.43908  -0.41366  -0.41006
 Alpha  occ. eigenvalues --   -0.38267  -0.36966  -0.36296  -0.34229  -0.34183
 Alpha  occ. eigenvalues --   -0.32051  -0.31469  -0.20294
 Alpha virt. eigenvalues --    0.00382   0.02058   0.02155   0.02345   0.04230
 Alpha virt. eigenvalues --    0.04536   0.05283   0.05939   0.06370   0.08211
 Alpha virt. eigenvalues --    0.08820   0.08835   0.09518   0.09558   0.10318

 Mulliken atomic charges:
              1
     1  C   -0.331201
     2  C   -0.178979
     3  C   -0.178977
     4  C   -0.238346
     5  C   -0.238347
     6  N   -0.175139
     7  C   -0.379473
     8  H    0.136870
     9  H    0.134828
    10  H    0.136277
    11  H    0.131821
    12  H    0.131821
    13  H    0.136276
    14  H    0.125169
    15  H    0.133643
    16  H    0.133643
    17  H    0.125170
    18  H    0.126132
    19  H    0.134407
    20  H    0.134405
 Sum of Mulliken atomic charges =   0.00000

 Dipole moment (field-independent basis, Debye):
    X=              0.5985    Y=              0.0000    Z=             -0.6903  Tot=              0.9136
 Quadrupole moment (field-independent basis, Debye-Ang):
   XX=            -47.5421   YY=            -45.1740   ZZ=            -47.5528
   XY=              0.0000   XZ=              2.2994   YZ=              0.0000

 Normal termination of Gaussian 09 at Sun Mar 27 19:07:31 2016.
