 Gaussian 09, Revision A.01,
 Gaussian 09:  EM64L-G09RevA.01  8-May-2009

 -----------------------
 # opt b3lyp/6-31+g(d,p)
 -----------------------

 ---------------------
 N-me-piperidine ch-NI
 ---------------------
 Symbolic Z-matrix:
 Charge =  0 Multiplicity = 1

 SCF Done:  E(RB3LYP) =  -291.223444505     A.U. after   12 cycles
 SCF Done:  E(RB3LYP) =  -291.228603553     A.U. after   10 cycles
 SCF Done:  E(RB3LYP) =  -291.229665784     A.U. after   10 cycles
 SCF Done:  E(RB3LYP) =  -291.232180680     A.U. after   13 cycles
 SCF Done:  E(RB3LYP) =  -291.233404905     A.U. after   10 cycles
 SCF Done:  E(RB3LYP) =  -291.235092566     A.U. after   13 cycles
 SCF Done:  E(RB3LYP) =  -291.236134958     A.U. after   10 cycles
 SCF Done:  E(RB3LYP) =  -291.236249585     A.U. after    9 cycles
 SCF Done:  E(RB3LYP) =  -291.236252088     A.U. after    8 cycles
 SCF Done:  E(RB3LYP) =  -291.236266614     A.U. after    8 cycles
 SCF Done:  E(RB3LYP) =  -291.236486975     A.U. after   10 cycles
 SCF Done:  E(RB3LYP) =  -291.235511888     A.U. after   10 cycles
 SCF Done:  E(RB3LYP) =  -291.236683440     A.U. after   10 cycles
 SCF Done:  E(RB3LYP) =  -291.237239378     A.U. after    9 cycles
 SCF Done:  E(RB3LYP) =  -291.239249607     A.U. after   10 cycles
 SCF Done:  E(RB3LYP) =  -291.241581307     A.U. after   10 cycles
 SCF Done:  E(RB3LYP) =  -291.241657030     A.U. after   10 cycles
 SCF Done:  E(RB3LYP) =  -291.241974874     A.U. after   13 cycles
 SCF Done:  E(RB3LYP) =  -291.242362719     A.U. after   13 cycles
 SCF Done:  E(RB3LYP) =  -291.242369497     A.U. after    8 cycles
 Optimization completed.
    -- Stationary point found.

                         Standard orientation:
 ---------------------------------------------------------------------
 Center     Atomic      Atomic             Coordinates (Angstroms)
 Number     Number       Type             X           Y           Z
 ---------------------------------------------------------------------
      1          6           0        1.899801    0.000231    0.240279
      2          6           0        1.156355    1.259257   -0.226974
      3          6           0        1.156874   -1.259128   -0.226931
      4          6           0       -0.317288    1.211724    0.188706
      5          6           0       -0.316758   -1.211740    0.188634
      6          7           0       -0.972695   -0.000064   -0.307746
      7          6           0       -2.398445   -0.000237   -0.015502
      8          1           0        1.960114    0.000238    1.338398
      9          1           0        2.931260    0.000478   -0.131929
     10          1           0        1.212039    1.336259   -1.320392
     11          1           0        1.621989    2.161483    0.188067
     12          1           0        1.622722   -2.161137    0.188361
     13          1           0        1.212757   -1.336363   -1.320323
     14          1           0       -0.852295    2.078827   -0.215442
     15          1           0       -0.389520    1.274652    1.296510
     16          1           0       -0.388990   -1.274579    1.296491
     17          1           0       -0.851653   -2.079013   -0.215276
     18          1           0       -2.618070   -0.000311    1.071406
     19          1           0       -2.867593    0.885824   -0.455477
     20          1           0       -2.867132   -0.886554   -0.455443
 ---------------------------------------------------------------------

 The electronic state is 1-A.
 Alpha  occ. eigenvalues --  -14.32836 -10.20686 -10.20684 -10.20293 -10.18267
 Alpha  occ. eigenvalues --  -10.18158 -10.18155  -0.92519  -0.79503  -0.75141
 Alpha  occ. eigenvalues --   -0.69091  -0.62447  -0.61122  -0.54939  -0.48820
 Alpha  occ. eigenvalues --   -0.46040  -0.45402  -0.44248  -0.42163  -0.40356
 Alpha  occ. eigenvalues --   -0.38798  -0.38426  -0.36034  -0.34663  -0.32633
 Alpha  occ. eigenvalues --   -0.31408  -0.31352  -0.21564
 Alpha virt. eigenvalues --    0.00689   0.01709   0.02417   0.02684   0.04217
 Alpha virt. eigenvalues --    0.04685   0.05732   0.06029   0.06287   0.07646
 Alpha virt. eigenvalues --    0.08564   0.08908   0.09977   0.10314   0.10738

 Mulliken atomic charges:
              1
     1  C   -0.206543
     2  C   -0.314037
     3  C   -0.314076
     4  C   -0.247116
     5  C   -0.247147
     6  N   -0.112756
     7  C   -0.288898
     8  H    0.137275
     9  H    0.134775
    10  H    0.149379
    11  H    0.133626
    12  H    0.133642
    13  H    0.149376
    14  H    0.125803
    15  H    0.122918
    16  H    0.122919
    17  H    0.125805
    18  H    0.126937
    19  H    0.134066
    20  H    0.134053
 Sum of Mulliken atomic charges =   0.00000

 Dipole moment (field-independent basis, Debye):
    X=              0.0983    Y=             -0.0003    Z=              0.4619  Tot=              0.4722
 Quadrupole moment (field-independent basis, Debye-Ang):
   XX=            -45.3665   YY=            -45.1513   ZZ=            -48.6676
   XY=             -0.0011   XZ=             -0.2125   YZ=              0.0000

 Normal termination of Gaussian 09 at Sun Mar 27 13:06:46 2016.
