 Gaussian 09, Revision E.01,
 Gaussian 09:  ES64L-G09RevE.01 30-Nov-2015

 ------------------------------------
 # opt=modredundant b3lyp/6-31+g(d,p)
 ------------------------------------

 ---------------------
 N-me-piperidine ch-NI
 ---------------------
 Symbolic Z-matrix:
 Charge =  0 Multiplicity = 1

 SCF Done:  E(RB3LYP) =  -291.223444505     A.U. after   12 cycles
 SCF Done:  E(RB3LYP) =  -291.225139557     A.U. after   10 cycles
 SCF Done:  E(RB3LYP) =  -291.226425348     A.U. after   10 cycles
 SCF Done:  E(RB3LYP) =  -291.226756881     A.U. after    9 cycles
 SCF Done:  E(RB3LYP) =  -291.228093011     A.U. after   10 cycles
 SCF Done:  E(RB3LYP) =  -291.228208657     A.U. after    9 cycles
 SCF Done:  E(RB3LYP) =  -291.228228267     A.U. after    9 cycles
 SCF Done:  E(RB3LYP) =  -291.228235676     A.U. after    8 cycles
 SCF Done:  E(RB3LYP) =  -291.228236455     A.U. after    7 cycles
 Optimization completed.
    -- Stationary point found.

                         Standard orientation:
 ---------------------------------------------------------------------
 Center     Atomic      Atomic             Coordinates (Angstroms)
 Number     Number       Type             X           Y           Z
 ---------------------------------------------------------------------
      1          6           0       -1.891401   -0.000108   -0.083256
      2          6           0       -1.103491    1.263737    0.295853
      3          6           0       -1.103330   -1.263889    0.295748
      4          6           0        0.291387    1.250597   -0.354572
      5          6           0        0.291544   -1.250547   -0.354598
      6          7           0        0.975314    0.000288   -0.134398
      7          6           0        2.351446   -0.000048    0.290438
      8          1           0       -2.081271   -0.000069   -1.167480
      9          1           0       -2.872651   -0.000204    0.406485
     10          1           0       -0.990735    1.305154    1.387885
     11          1           0       -1.647319    2.165768   -0.013013
     12          1           0       -1.647036   -2.165969   -0.013193
     13          1           0       -0.990610   -1.305390    1.387778
     14          1           0        0.902271    2.062033    0.053213
     15          1           0        0.169035    1.459926   -1.439269
     16          1           0        0.169499   -1.459847   -1.439295
     17          1           0        0.902682   -2.061700    0.053352
     18          1           0        2.879713   -0.877599   -0.103527
     19          1           0        2.878427    0.880237   -0.098966
     20          1           0        2.483861   -0.002811    1.389138
 ---------------------------------------------------------------------

 The electronic state is 1-A.
 Alpha  occ. eigenvalues --  -14.31490 -10.20763 -10.20761 -10.20484 -10.18085
 Alpha  occ. eigenvalues --  -10.17882 -10.17879  -0.91856  -0.79068  -0.75177
 Alpha  occ. eigenvalues --   -0.69432  -0.62645  -0.60926  -0.54418  -0.48843
 Alpha  occ. eigenvalues --   -0.46193  -0.44953  -0.43671  -0.41900  -0.40670
 Alpha  occ. eigenvalues --   -0.39190  -0.38422  -0.35999  -0.34139  -0.32820
 Alpha  occ. eigenvalues --   -0.31756  -0.31503  -0.18431
 Alpha virt. eigenvalues --    0.00508   0.01821   0.02312   0.02715   0.04191
 Alpha virt. eigenvalues --    0.04507   0.05723   0.06042   0.06043   0.07423
 Alpha virt. eigenvalues --    0.08773   0.09504   0.09538   0.09652   0.10035

 Mulliken charges:
               1
     1  C   -0.197778
     2  C   -0.215931
     3  C   -0.216301
     4  C   -0.303242
     5  C   -0.302835
     6  N   -0.127990
     7  C   -0.320017
     8  H    0.135990
     9  H    0.134737
    10  H    0.138516
    11  H    0.128762
    12  H    0.128773
    13  H    0.138536
    14  H    0.123685
    15  H    0.120995
    16  H    0.121063
    17  H    0.123768
    18  H    0.131139
    19  H    0.131115
    20  H    0.127014
 Sum of Mulliken charges =  -0.00000

 Dipole moment (field-independent basis, Debye):
    X=              0.1017    Y=             -0.0003    Z=              0.2153  Tot=              0.2381
 Quadrupole moment (field-independent basis, Debye-Ang):
   XX=            -45.9717   YY=            -45.5931   ZZ=            -47.8451
   XY=              0.0030   XZ=              0.2123   YZ=              0.0014

 Normal termination of Gaussian 09 at Wed Sep 12 21:57:57 2018.
