 Gaussian 09, Revision A.01,
 Gaussian 09:  EM64L-G09RevA.01  8-May-2009

 -----------------------
 # opt b3lyp/6-31+g(d,p)
 -----------------------

 --------------------
 N-methylazetidine-lp
 --------------------
 Symbolic Z-matrix:
 Charge =  0 Multiplicity = 1

 SCF Done:  E(RB3LYP) =  -212.563379739     A.U. after   12 cycles
 SCF Done:  E(RB3LYP) =  -212.571078866     A.U. after   10 cycles
 SCF Done:  E(RB3LYP) =  -212.571815926     A.U. after   12 cycles
 SCF Done:  E(RB3LYP) =  -212.571871175     A.U. after    8 cycles
 SCF Done:  E(RB3LYP) =  -212.571876284     A.U. after    8 cycles
 Optimization completed.
    -- Stationary point found.

                         Standard orientation:
 ---------------------------------------------------------------------
 Center     Atomic      Atomic             Coordinates (Angstroms)
 Number     Number       Type             X           Y           Z
 ---------------------------------------------------------------------
      1          7           0        0.477475   -0.000003   -0.414806
      2          6           0       -1.592016    0.000003    0.035897
      3          6           0       -0.454522   -1.050257    0.050091
      4          6           0       -0.454509    1.050258    0.050091
      5          1           0       -2.285861    0.000008    0.878996
      6          1           0       -2.150967    0.000011   -0.902987
      7          1           0       -0.534446   -1.923319   -0.607588
      8          1           0       -0.230907    1.393811    1.076639
      9          1           0       -0.534428    1.923315   -0.607588
     10          6           0        1.835627   -0.000003    0.088697
     11          1           0       -0.230920   -1.393806    1.076637
     12          1           0        1.884795   -0.000048    1.196317
     13          1           0        2.366442    0.885570   -0.277690
     14          1           0        2.366479   -0.885526   -0.277752
 ---------------------------------------------------------------------

 The electronic state is 1-A.
 Alpha  occ. eigenvalues --  -14.32689 -10.21129 -10.21128 -10.20369 -10.18955
 Alpha  occ. eigenvalues --   -0.94013  -0.76309  -0.67560  -0.64474  -0.55204
 Alpha  occ. eigenvalues --   -0.48826  -0.48778  -0.44534  -0.41482  -0.39494
 Alpha  occ. eigenvalues --   -0.36021  -0.35467  -0.33056  -0.32345  -0.21819
 Alpha virt. eigenvalues --    0.01161   0.01917   0.02740   0.03308   0.04585
 Alpha virt. eigenvalues --    0.05836   0.06205   0.06622   0.07540   0.08363
 Alpha virt. eigenvalues --    0.10611   0.10805   0.12154   0.12167   0.14946

 Mulliken atomic charges:
              1
     1  N   -0.149894
     2  C   -0.197631
     3  C   -0.270084
     4  C   -0.270089
     5  H    0.141140
     6  H    0.151829
     7  H    0.135097
     8  H    0.121783
     9  H    0.135097
    10  C   -0.319819
    11  H    0.121783
    12  H    0.118196
    13  H    0.141296
    14  H    0.141297
 Sum of Mulliken atomic charges =   0.00000

 Dipole moment (field-independent basis, Debye):
    X=             -0.2392    Y=              0.0000    Z=              0.8189  Tot=              0.8531
 Quadrupole moment (field-independent basis, Debye-Ang):
   XX=            -31.6837   YY=            -32.1995   ZZ=            -34.9146
   XY=              0.0000   XZ=              0.3903   YZ=              0.0000

 Normal termination of Gaussian 09 at Sun Mar 27 18:56:39 2016.
