 Gaussian 09, Revision A.01,
 Gaussian 09:  EM64L-G09RevA.01  8-May-2009

 -----------------------
 # opt b3lyp/6-31+g(d,p)
 -----------------------

 -----------------------
 N-me-pyrrolidine-eq-nlp
 -----------------------
 Symbolic Z-matrix:
 Charge =  0 Multiplicity = 1

 SCF Done:  E(RB3LYP) =  -251.915162306     A.U. after   12 cycles
 SCF Done:  E(RB3LYP) =  -251.918082919     A.U. after   13 cycles
 SCF Done:  E(RB3LYP) =  -251.918114578     A.U. after   15 cycles
 SCF Done:  E(RB3LYP) =  -251.918119961     A.U. after   15 cycles
 SCF Done:  E(RB3LYP) =  -251.918120379     A.U. after    7 cycles
 Optimization completed.
    -- Stationary point found.

                         Standard orientation:
 ---------------------------------------------------------------------
 Center     Atomic      Atomic             Coordinates (Angstroms)
 Number     Number       Type             X           Y           Z
 ---------------------------------------------------------------------
      1          6           0        1.498862   -0.779288   -0.058038
      2          6           0        1.498882    0.779269   -0.057991
      3          6           0        0.021826    1.158496    0.161241
      4          6           0        0.021817   -1.158485    0.161273
      5          7           0       -0.714804   -0.000003   -0.344033
      6          6           0       -2.130242    0.000005   -0.024367
      7          1           0        1.855546    1.163397   -1.018080
      8          1           0        2.140750    1.198422    0.722601
      9          1           0       -0.279446    2.068692   -0.368614
     10          1           0       -0.178036    1.317826    1.241775
     11          1           0       -0.178006   -1.317749    1.241827
     12          1           0       -0.279500   -2.068705   -0.368516
     13          1           0       -2.321775    0.000021    1.068092
     14          1           0       -2.609491    0.885790   -0.453955
     15          1           0       -2.609497   -0.885802   -0.453911
     16          1           0        2.140775   -1.198498    0.722485
     17          1           0        1.855443   -1.163355   -1.018180
 ---------------------------------------------------------------------

 The electronic state is 1-A.
 Alpha  occ. eigenvalues --  -14.32767 -10.20659 -10.20658 -10.20373 -10.18454
 Alpha  occ. eigenvalues --  -10.18436  -0.93146  -0.77900  -0.72263  -0.67360
 Alpha  occ. eigenvalues --   -0.58007  -0.57330  -0.49037  -0.48534  -0.44410
 Alpha  occ. eigenvalues --   -0.42908  -0.40742  -0.37991  -0.36002  -0.35909
 Alpha  occ. eigenvalues --   -0.34206  -0.33609  -0.32118  -0.21598
 Alpha virt. eigenvalues --    0.00877   0.02218   0.02961   0.03048   0.04669
 Alpha virt. eigenvalues --    0.04730   0.05957   0.06392   0.06543   0.08422
 Alpha virt. eigenvalues --    0.09011   0.10296   0.10920   0.10986   0.12434

 Mulliken atomic charges:
              1
     1  C   -0.294998
     2  C   -0.294963
     3  C   -0.244485
     4  C   -0.244463
     5  N   -0.117415
     6  C   -0.291669
     7  H    0.149258
     8  H    0.140147
     9  H    0.133251
    10  H    0.122381
    11  H    0.122379
    12  H    0.133251
    13  H    0.123563
    14  H    0.137180
    15  H    0.137178
    16  H    0.140145
    17  H    0.149261
 Sum of Mulliken atomic charges =   0.00000

 Dipole moment (field-independent basis, Debye):
    X=              0.1384    Y=              0.0000    Z=              0.5335  Tot=              0.5512
 Quadrupole moment (field-independent basis, Debye-Ang):
   XX=            -38.5656   YY=            -38.6471   ZZ=            -41.6335
   XY=              0.0001   XZ=              0.0109   YZ=             -0.0001

 Normal termination of Gaussian 09 at Sun Mar 27 13:31:52 2016.
