 Gaussian 09, Revision A.01,
 Gaussian 09:  EM64L-G09RevA.01  8-May-2009

 -----------------------
 # opt b3lyp/6-31+g(d,p)
 -----------------------

 -----------
 propene-ecl
 -----------
 Symbolic Z-matrix:
 Charge =  0 Multiplicity = 1

 SCF Done:  E(RB3LYP) =  -117.918257389     A.U. after   10 cycles
 SCF Done:  E(RB3LYP) =  -117.919661644     A.U. after   10 cycles
 SCF Done:  E(RB3LYP) =  -117.919683171     A.U. after    8 cycles
 SCF Done:  E(RB3LYP) =  -117.919685383     A.U. after    7 cycles
 Optimization completed.
    -- Stationary point found.

                         Standard orientation:
 ---------------------------------------------------------------------
 Center     Atomic      Atomic             Coordinates (Angstroms)
 Number     Number       Type             X           Y           Z
 ---------------------------------------------------------------------
      1          6           0        1.242599   -0.158092    0.000002
      2          6           0       -0.137756    0.459775   -0.000006
      3          6           0       -1.285388   -0.225363   -0.000002
      4          1           0        1.398087   -0.789459   -0.882578
      5          1           0        2.024118    0.606795   -0.000202
      6          1           0        1.398224   -0.789134    0.882790
      7          1           0       -0.185404    1.548510    0.000009
      8          1           0       -2.247201    0.279133    0.000020
      9          1           0       -1.304552   -1.313766    0.000000
 ---------------------------------------------------------------------

 The electronic state is 1-A.
 Alpha  occ. eigenvalues --  -10.19796 -10.18684 -10.18245  -0.78666  -0.68784
 Alpha  occ. eigenvalues --   -0.55665  -0.46693  -0.42444  -0.41486  -0.37456
 Alpha  occ. eigenvalues --   -0.34701  -0.25843
 Alpha virt. eigenvalues --   -0.00510   0.01445   0.03108   0.03553   0.06025
 Alpha virt. eigenvalues --    0.06415   0.07468   0.09441   0.09754   0.11830
 Alpha virt. eigenvalues --    0.13114   0.13119   0.16096   0.19779   0.21457

 Mulliken atomic charges:
              1
     1  C   -0.609579
     2  C    0.099509
     3  C   -0.355994
     4  H    0.163946
     5  H    0.149050
     6  H    0.163950
     7  H    0.128743
     8  H    0.132528
     9  H    0.127846
 Sum of Mulliken atomic charges =   0.00000

 Dipole moment (field-independent basis, Debye):
    X=              0.4179    Y=             -0.0265    Z=              0.0001  Tot=              0.4187
 Quadrupole moment (field-independent basis, Debye-Ang):
   XX=            -19.5499   YY=            -19.1805   ZZ=            -22.2513
   XY=              0.0958   XZ=              0.0000   YZ=              0.0000

 1\1\GINC-ROCK\FOpt\RB3LYP\6-31+G(d,p)\C3H6\STYLIANAKIS\27-Mar-2016\0\\
 # opt b3lyp/6-31+g(d,p)\\propene-ecl\\0,1\C,-0.1512338511,-1.239155344
 1,0.080804473\C,-0.2554140732,0.2509293113,0.317305314\C,0.4010846538,
 1.185955643,-0.3763879973\H,0.8779530103,-1.5936399734,0.2106612668\H,
 -0.7830655873,-1.8002958096,0.7748756134\H,-0.4608882465,-1.5051597695
 ,-0.9365954377\H,-0.920676374,0.5728935471,1.1181669068\H,0.2826175012
 ,2.2429766002,-0.1566781843\H,1.079622937,0.9286208249,-1.1877769547\\
 Version=EM64L-G09RevA.01\State=1-A\HF=-117.9196854\RMSD=6.010e-09\RMSF

 Normal termination of Gaussian 09 at Sun Mar 27 19:13:44 2016.
