 Gaussian 09, Revision A.01,
 Gaussian 09:  EM64L-G09RevA.01  8-May-2009

 -----------------------
 # opt b3lyp/6-31+g(d,p)
 -----------------------

 ---------
 propene-a
 ---------
 Symbolic Z-matrix:
 Charge =  0 Multiplicity = 1

 SCF Done:  E(RB3LYP) =  -117.921576656     A.U. after   10 cycles
 SCF Done:  E(RB3LYP) =  -117.922792244     A.U. after    9 cycles
 SCF Done:  E(RB3LYP) =  -117.922798788     A.U. after    8 cycles
 SCF Done:  E(RB3LYP) =  -117.922799204     A.U. after    7 cycles
 Optimization completed.
    -- Stationary point found.

                         Standard orientation:
 ---------------------------------------------------------------------
 Center     Atomic      Atomic             Coordinates (Angstroms)
 Number     Number       Type             X           Y           Z
 ---------------------------------------------------------------------
      1          6           0       -1.236528    0.163309   -0.000003
      2          6           0        0.132610   -0.455446    0.000006
      3          6           0        1.285376    0.220837    0.000007
      4          1           0       -1.183123    1.256639   -0.000118
      5          1           0       -1.811522   -0.151670   -0.880150
      6          1           0       -1.811423   -0.151487    0.880275
      7          1           0        0.165018   -1.545816   -0.000021
      8          1           0        2.244663   -0.288610   -0.000025
      9          1           0        1.307641    1.308740   -0.000018
 ---------------------------------------------------------------------

 The electronic state is 1-A.
 Alpha  occ. eigenvalues --  -10.19837 -10.18767 -10.18312  -0.78857  -0.68839
 Alpha  occ. eigenvalues --   -0.55728  -0.46871  -0.42374  -0.41505  -0.37502
 Alpha  occ. eigenvalues --   -0.34939  -0.25992
 Alpha virt. eigenvalues --    0.00243   0.01440   0.03145   0.03584   0.06165
 Alpha virt. eigenvalues --    0.06271   0.07485   0.09373   0.10114   0.11536
 Alpha virt. eigenvalues --    0.11682   0.13379   0.15884   0.20761   0.21542

 Mulliken atomic charges:
              1
     1  C   -0.618400
     2  C    0.122581
     3  C   -0.349944
     4  H    0.148921
     5  H    0.155497
     6  H    0.155500
     7  H    0.126837
     8  H    0.131992
     9  H    0.127017
 Sum of Mulliken atomic charges =   0.00000

 Dipole moment (field-independent basis, Debye):
    X=             -0.4381    Y=             -0.0702    Z=             -0.0001  Tot=              0.4437
 Quadrupole moment (field-independent basis, Debye-Ang):
   XX=            -19.5104   YY=            -19.2057   ZZ=            -22.2849
   XY=              0.1498   XZ=             -0.0001   YZ=              0.0000

 1\1\GINC-ROCK\FOpt\RB3LYP\6-31+G(d,p)\C3H6\STYLIANAKIS\27-Mar-2016\0\\
 # opt b3lyp/6-31+g(d,p)\\propene-a\\0,1\C,-0.3453762337,-1.1953213243,
 -0.0698531308\C,-0.3577634764,0.3067351758,-0.0371590385\C,0.718642096
 2,1.0845060625,0.113352842\H,0.6685325931,-1.5911943363,0.0463186948\H
 ,-0.9697283554,-1.6122599426,0.7306687514\H,-0.7540418572,-1.572436366
 8,-1.0160388495\H,-1.3345749014,0.7797734231,-0.1468526626\H,0.6410435
 33,2.1677954717,0.1284996304\H,1.7151416318,0.6624018669,0.2266887626\
 \Version=EM64L-G09RevA.01\State=1-A\HF=-117.9227992\RMSD=3.044e-09\RMS

 Normal termination of Gaussian 09 at Sun Mar 27 19:13:19 2016.
