 Gaussian 09, Revision A.01,
 Gaussian 09:  EM64L-G09RevA.01  8-May-2009

 -----------------------
 # opt b3lyp/6-31+g(d,p)
 -----------------------

 ---------
 propane-a
 ---------
 Symbolic Z-matrix:
 Charge =  0 Multiplicity = 1

 SCF Done:  E(RB3LYP) =  -119.157452717     A.U. after   10 cycles
 SCF Done:  E(RB3LYP) =  -119.159145787     A.U. after    9 cycles
 SCF Done:  E(RB3LYP) =  -119.159151598     A.U. after    7 cycles
 Optimization completed.
    -- Stationary point found.

                         Standard orientation:
 ---------------------------------------------------------------------
 Center     Atomic      Atomic             Coordinates (Angstroms)
 Number     Number       Type             X           Y           Z
 ---------------------------------------------------------------------
      1          6           0        1.277640   -0.259951    0.000000
      2          6           0        0.000000    0.586923    0.000000
      3          6           0       -1.277660   -0.260139    0.000000
      4          1           0        2.176287    0.366701    0.000000
      5          1           0        1.322956   -0.906959    0.884387
      6          1           0        1.322956   -0.906959   -0.884387
      7          1           0       -0.000112    1.246904    0.877465
      8          1           0       -0.000112    1.246904   -0.877465
      9          1           0       -2.176255    0.366561    0.000000
     10          1           0       -1.322801   -0.907075   -0.884426
     11          1           0       -1.322801   -0.907075    0.884426
 ---------------------------------------------------------------------

 The electronic state is 1-A'.
 Alpha  occ. eigenvalues --  -10.18439 -10.17575 -10.17574  -0.77996  -0.68124
 Alpha  occ. eigenvalues --   -0.58545  -0.45646  -0.43613  -0.39840  -0.38131
 Alpha  occ. eigenvalues --   -0.33887  -0.33775  -0.32887
 Alpha virt. eigenvalues --    0.01506   0.03020   0.03496   0.04557   0.06973
 Alpha virt. eigenvalues --    0.07713   0.08258   0.08563   0.09306   0.11344
 Alpha virt. eigenvalues --    0.12338   0.14922   0.19612   0.20078   0.20172

 Mulliken atomic charges:
              1
     1  C   -0.488340
     2  C   -0.154269
     3  C   -0.488329
     4  H    0.142882
     5  H    0.142350
     6  H    0.142350
     7  H    0.137882
     8  H    0.137882
     9  H    0.142883
    10  H    0.142355
    11  H    0.142355
 Sum of Mulliken atomic charges =   0.00000

 Dipole moment (field-independent basis, Debye):
    X=              0.0000    Y=              0.0867    Z=              0.0000  Tot=              0.0867
 Quadrupole moment (field-independent basis, Debye-Ang):
   XX=            -22.5546   YY=            -22.2048   ZZ=            -21.7144
   XY=             -0.0005   XZ=              0.0000   YZ=              0.0000

 1\1\GINC-ROCK\FOpt\RB3LYP\6-31+G(d,p)\C3H8\STYLIANAKIS\27-Mar-2016\0\\
 # opt b3lyp/6-31+g(d,p)\\propane-a\\0,1\C,0.5248349179,-1.1937323321,0
 .\C,0.4788558292,0.3384051993,0.\C,-0.9503540339,0.8927412087,0.\H,1.5
 552806201,-1.5658097697,0.\H,0.0226658593,-1.6042186987,0.8843873934\H
 ,0.0226658593,-1.6042186987,-0.8843873934\H,1.0177117789,0.7194673899,
 0.8774648298\H,1.0177117789,0.7194673899,-0.8774648298\H,-0.9573190311
 ,1.9882676563,0.\H,-1.5046806142,0.5561615024,-0.8844257798\H,-1.50468
 06142,0.5561615024,0.8844257798\\Version=EM64L-G09RevA.01\State=1-A'\H

 Normal termination of Gaussian 09 at Sun Mar 27 19:12:04 2016.
