 Gaussian 09, Revision A.01,
 Gaussian 09:  EM64L-G09RevA.01  8-May-2009

 -----------------------
 # opt b3lyp/6-31+g(d,p)
 -----------------------

 -----------
 propane-ecl
 -----------
 Symbolic Z-matrix:
 Charge =  0 Multiplicity = 1

 SCF Done:  E(RB3LYP) =  -119.152454461     A.U. after   10 cycles
 SCF Done:  E(RB3LYP) =  -119.154318150     A.U. after   11 cycles
 SCF Done:  E(RB3LYP) =  -119.154337143     A.U. after    7 cycles
 SCF Done:  E(RB3LYP) =  -119.154338696     A.U. after    6 cycles
 SCF Done:  E(RB3LYP) =  -119.154338839     A.U. after    6 cycles
 SCF Done:  E(RB3LYP) =  -119.154338938     A.U. after    6 cycles
 SCF Done:  E(RB3LYP) =  -119.154338761     A.U. after    6 cycles
 Optimization completed.
    -- Stationary point found.

                         Standard orientation:
 ---------------------------------------------------------------------
 Center     Atomic      Atomic             Coordinates (Angstroms)
 Number     Number       Type             X           Y           Z
 ---------------------------------------------------------------------
      1          6           0        1.284238   -0.265633   -0.000001
      2          6           0        0.008708    0.586775    0.000000
      3          6           0       -1.291915   -0.253964    0.000000
      4          1           0        2.185325    0.358089    0.000006
      5          1           0        1.325995   -0.912674    0.884439
      6          1           0        1.326000   -0.912667   -0.884445
      7          1           0        0.024000    1.248996    0.874157
      8          1           0        0.023998    1.249000   -0.874154
      9          1           0       -1.909876   -0.053112    0.881282
     10          1           0       -1.909974   -0.052960   -0.881179
     11          1           0       -1.071656   -1.327740   -0.000102
 ---------------------------------------------------------------------

 The electronic state is 1-A.
 Alpha  occ. eigenvalues --  -10.18437 -10.17600 -10.17547  -0.77734  -0.68084
 Alpha  occ. eigenvalues --   -0.58645  -0.45384  -0.43633  -0.39502  -0.38513
 Alpha  occ. eigenvalues --   -0.33832  -0.33745  -0.32450
 Alpha virt. eigenvalues --    0.01517   0.03007   0.03504   0.04756   0.06767
 Alpha virt. eigenvalues --    0.07749   0.08134   0.08744   0.08834   0.11439
 Alpha virt. eigenvalues --    0.12221   0.14519   0.17732   0.20001   0.21367

 Mulliken atomic charges:
              1
     1  C   -0.513498
     2  C   -0.134462
     3  C   -0.506809
     4  H    0.142623
     5  H    0.146028
     6  H    0.146027
     7  H    0.139980
     8  H    0.139980
     9  H    0.146385
    10  H    0.146384
    11  H    0.147362
 Sum of Mulliken atomic charges =   0.00000

 Dipole moment (field-independent basis, Debye):
    X=             -0.0226    Y=              0.0815    Z=              0.0000  Tot=              0.0846
 Quadrupole moment (field-independent basis, Debye-Ang):
   XX=            -22.5544   YY=            -22.2069   ZZ=            -21.6733
   XY=              0.0329   XZ=              0.0000   YZ=              0.0000

 1\1\GINC-ROCK\FOpt\RB3LYP\6-31+G(d,p)\C3H8\STYLIANAKIS\27-Mar-2016\0\\
 # opt b3lyp/6-31+g(d,p)\\propane-ecl\\0,1\C,0.5331201677,-1.1977232844
 ,0.0014580928\C,0.4821483384,0.3355638585,-0.0013510346\C,-0.959151861
 3,0.9022336158,-0.0006957091\H,1.5651854686,-1.5662732361,0.0009258561
 \H,0.0327874239,-1.6071829501,0.8872623501\H,0.0306900582,-1.610493851
 1,-0.8816175329\H,1.0301661841,0.710812378,0.8714528712\H,1.0280859022
 ,0.7075428915,-0.8768539703\H,-1.1551450183,1.5230694416,0.8796595938\
 H,-1.1571780098,1.5199372372,-0.882797096\H,-1.7032086538,0.097321549,

 Normal termination of Gaussian 09 at Sun Mar 27 19:12:54 2016.
