 Gaussian 09, Revision A.01,
 Gaussian 09:  EM64L-G09RevA.01  8-May-2009

 -----------------------
 # opt b3lyp/6-31+g(d,p)
 -----------------------

 ----------
 tBu-CMe2Cl
 ----------
 Symbolic Z-matrix:
 Charge =  0 Multiplicity = 1

 SCF Done:  E(RB3LYP) =  -736.013556207     A.U. after   13 cycles
 SCF Done:  E(RB3LYP) =  -736.018880776     A.U. after   11 cycles
 SCF Done:  E(RB3LYP) =  -736.019220075     A.U. after   13 cycles
 SCF Done:  E(RB3LYP) =  -736.019322093     A.U. after   14 cycles
 SCF Done:  E(RB3LYP) =  -736.019341919     A.U. after   14 cycles
 SCF Done:  E(RB3LYP) =  -736.019341725     A.U. after   14 cycles
 SCF Done:  E(RB3LYP) =  -736.019344923     A.U. after   14 cycles
 SCF Done:  E(RB3LYP) =  -736.019345807     A.U. after   14 cycles
 Optimization completed.
    -- Stationary point found.

                         Standard orientation:
 ---------------------------------------------------------------------
 Center     Atomic      Atomic             Coordinates (Angstroms)
 Number     Number       Type             X           Y           Z
 ---------------------------------------------------------------------
      1          6           0       -0.969095   -0.172270    0.000006
      2          6           0        0.472680    0.468571    0.000007
      3          6           0        0.785046    1.295294   -1.253368
      4          6           0        0.785066    1.295304    1.253371
      5         17           0        1.743431   -0.917219   -0.000003
      6          1           0        1.811716    1.666918   -1.206335
      7          1           0        0.680459    0.712637   -2.169899
      8          1           0        0.117538    2.161565   -1.311106
      9          1           0        1.811732    1.666937    1.206311
     10          1           0        0.117554    2.161571    1.311121
     11          1           0        0.680509    0.712653    2.169908
     12          6           0       -1.203431   -1.046767    1.251934
     13          6           0       -2.036058    0.951984   -0.000107
     14          6           0       -1.203341   -1.046917   -1.251831
     15          1           0       -2.202174   -1.493429    1.200337
     16          1           0       -0.474864   -1.858569    1.319507
     17          1           0       -1.156431   -0.465301    2.177605
     18          1           0       -3.032083    0.496548   -0.000126
     19          1           0       -1.972224    1.588983    0.887137
     20          1           0       -1.972137    1.588881   -0.887418
     21          1           0       -2.202102   -1.493542   -1.200271
     22          1           0       -1.156232   -0.465571   -2.177572
     23          1           0       -0.474792   -1.858751   -1.319229
 ---------------------------------------------------------------------

 The electronic state is 1-A.
 Alpha  occ. eigenvalues -- -101.52356 -10.26513 -10.21800 -10.19066 -10.19065
 Alpha  occ. eigenvalues --  -10.18714 -10.17791 -10.17791  -9.43896  -7.20241
 Alpha  occ. eigenvalues --   -7.19351  -7.19342  -0.87023  -0.80197  -0.75277
 Alpha  occ. eigenvalues --   -0.70970  -0.69207  -0.68160  -0.61128  -0.52097
 Alpha  occ. eigenvalues --   -0.48559  -0.46163  -0.45244  -0.44281  -0.43285
 Alpha  occ. eigenvalues --   -0.40971  -0.39448  -0.38740  -0.37960  -0.37581
 Alpha  occ. eigenvalues --   -0.36388  -0.36175  -0.33546  -0.32886  -0.32705
 Alpha  occ. eigenvalues --   -0.28941  -0.28814
 Alpha virt. eigenvalues --   -0.00272   0.00384   0.01661   0.01897   0.02630
 Alpha virt. eigenvalues --    0.04286   0.04559   0.05291   0.05460   0.05656
 Alpha virt. eigenvalues --    0.07238   0.07423   0.07433   0.07706   0.09414

 Mulliken atomic charges:
              1
     1  C    0.173430
     2  C    0.048840
     3  C   -0.487122
     4  C   -0.487119
     5  Cl  -0.084435
     6  H    0.164851
     7  H    0.162448
     8  H    0.151746
     9  H    0.164851
    10  H    0.151747
    11  H    0.162450
    12  C   -0.486376
    13  C   -0.505686
    14  C   -0.486373
    15  H    0.144350
    16  H    0.171601
    17  H    0.139835
    18  H    0.153288
    19  H    0.145947
    20  H    0.145946
    21  H    0.144349
    22  H    0.139832
    23  H    0.171601
 Sum of Mulliken atomic charges =   0.00000

 Dipole moment (field-independent basis, Debye):
    X=             -1.7485    Y=              1.6853    Z=              0.0000  Tot=              2.4285
 Quadrupole moment (field-independent basis, Debye-Ang):
   XX=            -63.4472   YY=            -60.4428   ZZ=            -60.1443
   XY=              2.4829   XZ=              0.0000   YZ=              0.0000

 Normal termination of Gaussian 09 at Sun Mar 27 19:27:53 2016.
