 Gaussian 09, Revision A.01,
 Gaussian 09:  EM64L-G09RevA.01  8-May-2009

 -----------------------
 # opt b3lyp/6-31+g(d,p)
 -----------------------

 -------------
 tBu-CMe2Cl-ts
 -------------
 Symbolic Z-matrix:
 Charge =  0 Multiplicity = 1

 SCF Done:  E(RB3LYP) =  -735.998154837     A.U. after   13 cycles
 SCF Done:  E(RB3LYP) =  -736.004777960     A.U. after   14 cycles
 SCF Done:  E(RB3LYP) =  -736.005140631     A.U. after   10 cycles
 SCF Done:  E(RB3LYP) =  -736.005170972     A.U. after   10 cycles
 SCF Done:  E(RB3LYP) =  -736.005242767     A.U. after   10 cycles
 SCF Done:  E(RB3LYP) =  -736.005371168     A.U. after   10 cycles
 SCF Done:  E(RB3LYP) =  -736.005176577     A.U. after   11 cycles
 SCF Done:  E(RB3LYP) =  -736.005416688     A.U. after   10 cycles
 SCF Done:  E(RB3LYP) =  -736.005925296     A.U. after   11 cycles
 SCF Done:  E(RB3LYP) =  -736.005513597     A.U. after   11 cycles
 SCF Done:  E(RB3LYP) =  -736.019112520     A.U. after   11 cycles
 SCF Done:  E(RB3LYP) =  -736.018882199     A.U. after   10 cycles
 SCF Done:  E(RB3LYP) =  -736.019251606     A.U. after   11 cycles
 SCF Done:  E(RB3LYP) =  -736.019294687     A.U. after   10 cycles
 SCF Done:  E(RB3LYP) =  -736.019316582     A.U. after   10 cycles
 SCF Done:  E(RB3LYP) =  -736.019330400     A.U. after   10 cycles
 SCF Done:  E(RB3LYP) =  -736.019341447     A.U. after    9 cycles
 SCF Done:  E(RB3LYP) =  -736.019345361     A.U. after   14 cycles
 SCF Done:  E(RB3LYP) =  -736.019345835     A.U. after    8 cycles
 SCF Done:  E(RB3LYP) =  -736.019345850     A.U. after   14 cycles
 Optimization completed.
    -- Stationary point found.

                         Standard orientation:
 ---------------------------------------------------------------------
 Center     Atomic      Atomic             Coordinates (Angstroms)
 Number     Number       Type             X           Y           Z
 ---------------------------------------------------------------------
      1          6           0       -0.969034   -0.172358   -0.000018
      2          6           0        0.472760    0.468343   -0.000004
      3          6           0        0.784946    1.295371   -1.253259
      4          6           0        0.784893    1.295219    1.253351
      5         17           0        1.743612   -0.917148   -0.000025
      6          1           0        1.811563    1.667100   -1.206152
      7          1           0        0.680396    0.712870   -2.169881
      8          1           0        0.117280    2.161522   -1.310777
      9          1           0        1.811500    1.666981    1.206312
     10          1           0        0.117203    2.161345    1.310996
     11          1           0        0.680347    0.712582    2.169893
     12          6           0       -1.203564   -1.046894    1.251879
     13          6           0       -2.035812    0.952104    0.000002
     14          6           0       -1.203569   -1.046877   -1.251936
     15          1           0       -2.202309   -1.493483    1.200120
     16          1           0       -0.475037   -1.858718    1.319503
     17          1           0       -1.156596   -0.465493    2.177589
     18          1           0       -3.031896    0.496841   -0.000059
     19          1           0       -1.971799    1.588992    0.887311
     20          1           0       -1.971748    1.589135   -0.887194
     21          1           0       -2.202455   -1.493163   -1.200293
     22          1           0       -1.156300   -0.465532   -2.177664
     23          1           0       -0.475266   -1.858913   -1.319372
 ---------------------------------------------------------------------

 The electronic state is 1-A.
 Alpha  occ. eigenvalues -- -101.52359 -10.26512 -10.21800 -10.19065 -10.19064
 Alpha  occ. eigenvalues --  -10.18714 -10.17792 -10.17791  -9.43898  -7.20244
 Alpha  occ. eigenvalues --   -7.19353  -7.19344  -0.87024  -0.80198  -0.75277
 Alpha  occ. eigenvalues --   -0.70969  -0.69206  -0.68160  -0.61128  -0.52097
 Alpha  occ. eigenvalues --   -0.48560  -0.46163  -0.45243  -0.44281  -0.43285
 Alpha  occ. eigenvalues --   -0.40971  -0.39447  -0.38740  -0.37960  -0.37581
 Alpha  occ. eigenvalues --   -0.36387  -0.36177  -0.33547  -0.32886  -0.32705
 Alpha  occ. eigenvalues --   -0.28943  -0.28815
 Alpha virt. eigenvalues --   -0.00271   0.00387   0.01661   0.01897   0.02630
 Alpha virt. eigenvalues --    0.04287   0.04559   0.05292   0.05460   0.05656
 Alpha virt. eigenvalues --    0.07238   0.07423   0.07434   0.07706   0.09414

 Mulliken atomic charges:
              1
     1  C    0.173388
     2  C    0.048885
     3  C   -0.487146
     4  C   -0.487167
     5  Cl  -0.084270
     6  H    0.164843
     7  H    0.162432
     8  H    0.151738
     9  H    0.164841
    10  H    0.151738
    11  H    0.162440
    12  C   -0.486349
    13  C   -0.505728
    14  C   -0.486366
    15  H    0.144352
    16  H    0.171590
    17  H    0.139844
    18  H    0.153284
    19  H    0.145939
    20  H    0.145938
    21  H    0.144347
    22  H    0.139838
    23  H    0.171588
 Sum of Mulliken atomic charges =   0.00000

 Dipole moment (field-independent basis, Debye):
    X=             -1.7484    Y=              1.6847    Z=              0.0001  Tot=              2.4280
 Quadrupole moment (field-independent basis, Debye-Ang):
   XX=            -63.4468   YY=            -60.4432   ZZ=            -60.1450
   XY=              2.4818   XZ=              0.0001   YZ=             -0.0002

 Normal termination of Gaussian 09 at Sun Mar 27 20:13:05 2016.
