 Gaussian 09, Revision A.01,
 Gaussian 09:  EM64L-G09RevA.01  8-May-2009

 -----------------------
 # opt b3lyp/6-31+g(d,p)
 -----------------------

 ----------------------
 Trimethylphosphate-ecl
 ----------------------
 Symbolic Z-matrix:
 Charge =  0 Multiplicity = 1

 SCF Done:  E(RB3LYP) =  -762.034158833     A.U. after   13 cycles
 SCF Done:  E(RB3LYP) =  -762.062040538     A.U. after   12 cycles
 SCF Done:  E(RB3LYP) =  -762.073846610     A.U. after   11 cycles
 SCF Done:  E(RB3LYP) =  -762.075414402     A.U. after   13 cycles
 SCF Done:  E(RB3LYP) =  -762.075872442     A.U. after   10 cycles
 SCF Done:  E(RB3LYP) =  -762.076251712     A.U. after   11 cycles
 SCF Done:  E(RB3LYP) =  -762.076456755     A.U. after   10 cycles
 SCF Done:  E(RB3LYP) =  -762.076818185     A.U. after   11 cycles
 SCF Done:  E(RB3LYP) =  -762.077505784     A.U. after   13 cycles
 SCF Done:  E(RB3LYP) =  -762.078063065     A.U. after   10 cycles
 SCF Done:  E(RB3LYP) =  -762.079614418     A.U. after   14 cycles
 SCF Done:  E(RB3LYP) =  -762.079717997     A.U. after   14 cycles
 SCF Done:  E(RB3LYP) =  -762.079745516     A.U. after    9 cycles
 SCF Done:  E(RB3LYP) =  -762.079777222     A.U. after    9 cycles
 SCF Done:  E(RB3LYP) =  -762.079786975     A.U. after    9 cycles
 SCF Done:  E(RB3LYP) =  -762.079788035     A.U. after   15 cycles
 SCF Done:  E(RB3LYP) =  -762.079787889     A.U. after    8 cycles
 SCF Done:  E(RB3LYP) =  -762.079787820     A.U. after    7 cycles
 SCF Done:  E(RB3LYP) =  -762.079787734     A.U. after    8 cycles
 SCF Done:  E(RB3LYP) =  -762.079787722     A.U. after    7 cycles
 Optimization completed.
    -- Stationary point found.

                         Standard orientation:
 ---------------------------------------------------------------------
 Center     Atomic      Atomic             Coordinates (Angstroms)
 Number     Number       Type             X           Y           Z
 ---------------------------------------------------------------------
      1         15           0       -0.055658   -0.035544    0.409198
      2          8           0       -0.320476   -0.794463    1.651072
      3          8           0       -1.287505    0.723843   -0.290908
      4          8           0        0.991899    1.160129    0.604366
      5          8           0        0.493741   -0.931782   -0.825758
      6          6           0        1.351676    2.047011   -0.475222
      7          6           0       -2.506082    0.003902   -0.571734
      8          6           0        1.353776   -2.059791   -0.554597
      9          1           0        2.130990    2.698842   -0.079262
     10          1           0        1.736633    1.479253   -1.327247
     11          1           0        0.485575    2.639132   -0.780665
     12          1           0       -3.213204    0.743503   -0.948371
     13          1           0       -2.325911   -0.760456   -1.333237
     14          1           0       -2.894916   -0.455147    0.340913
     15          1           0        1.411343   -2.626688   -1.484722
     16          1           0        2.353397   -1.717193   -0.269236
     17          1           0        0.933471   -2.676632    0.242991
 ---------------------------------------------------------------------

 The electronic state is 1-A.
 Alpha  occ. eigenvalues --  -77.24794 -19.19429 -19.19271 -19.19194 -19.11995
 Alpha  occ. eigenvalues --  -10.25512 -10.25451 -10.25276  -6.69266  -4.85682
 Alpha  occ. eigenvalues --   -4.85648  -4.85459  -1.10564  -1.04497  -1.04351
 Alpha  occ. eigenvalues --   -0.96925  -0.74493  -0.71470  -0.70908  -0.58662
 Alpha  occ. eigenvalues --   -0.53363  -0.53052  -0.48992  -0.47902  -0.47582
 Alpha  occ. eigenvalues --   -0.45995  -0.45621  -0.45228  -0.41467  -0.37913
 Alpha  occ. eigenvalues --   -0.36366  -0.35566  -0.33648  -0.33165  -0.31598
 Alpha  occ. eigenvalues --   -0.30261  -0.29637
 Alpha virt. eigenvalues --   -0.00239   0.01030   0.01257   0.01681   0.03475
 Alpha virt. eigenvalues --    0.03982   0.04896   0.05744   0.06337   0.07665
 Alpha virt. eigenvalues --    0.08702   0.09218   0.09939   0.10512   0.10830

 Mulliken atomic charges:
              1
     1  P    2.073565
     2  O   -0.771725
     3  O   -0.655492
     4  O   -0.606118
     5  O   -0.697672
     6  C   -0.272959
     7  C   -0.266117
     8  C   -0.264019
     9  H    0.156155
    10  H    0.158825
    11  H    0.170127
    12  H    0.154422
    13  H    0.159960
    14  H    0.174233
    15  H    0.151544
    16  H    0.153401
    17  H    0.181869
 Sum of Mulliken atomic charges =   0.00000

 Dipole moment (field-independent basis, Debye):
    X=              0.3879    Y=              0.2856    Z=             -3.8007  Tot=              3.8311
 Quadrupole moment (field-independent basis, Debye-Ang):
   XX=            -46.0547   YY=            -49.6147   ZZ=            -62.8835
   XY=             -0.2371   XZ=              0.3340   YZ=              1.5733

 Normal termination of Gaussian 09 at Sun Mar 27 20:32:44 2016.
