 Gaussian 09, Revision A.01,
 Gaussian 09:  EM64L-G09RevA.01  8-May-2009

 ------------------
 # opt b3lyp/dgdzvp
 ------------------

 -----------------------------
 2-SnBu3-N-Me-piperidine-eq,eq
 -----------------------------
 Symbolic Z-matrix:
 Charge =  0 Multiplicity = 1

 SCF Done:  E(RB3LYP) =  -6788.97639702     A.U. after   12 cycles
 SCF Done:  E(RB3LYP) =  -6788.98846880     A.U. after   10 cycles
 SCF Done:  E(RB3LYP) =  -6788.98970766     A.U. after   10 cycles
 SCF Done:  E(RB3LYP) =  -6788.98981954     A.U. after    9 cycles
 SCF Done:  E(RB3LYP) =  -6788.98989862     A.U. after   10 cycles
 SCF Done:  E(RB3LYP) =  -6788.98989695     A.U. after    9 cycles
 SCF Done:  E(RB3LYP) =  -6788.98987648     A.U. after    9 cycles
 SCF Done:  E(RB3LYP) =  -6788.98985930     A.U. after   10 cycles
 SCF Done:  E(RB3LYP) =  -6788.98984127     A.U. after   13 cycles
 SCF Done:  E(RB3LYP) =  -6788.98986558     A.U. after   13 cycles
 SCF Done:  E(RB3LYP) =  -6788.98987197     A.U. after    8 cycles
 SCF Done:  E(RB3LYP) =  -6788.98987196     A.U. after    6 cycles
 SCF Done:  E(RB3LYP) =  -6788.98987202     A.U. after    6 cycles
 SCF Done:  E(RB3LYP) =  -6788.98987152     A.U. after    7 cycles
 SCF Done:  E(RB3LYP) =  -6788.98987242     A.U. after    7 cycles
 SCF Done:  E(RB3LYP) =  -6788.98987270     A.U. after    7 cycles
 SCF Done:  E(RB3LYP) =  -6788.98987334     A.U. after    7 cycles
 SCF Done:  E(RB3LYP) =  -6788.98987264     A.U. after    7 cycles
 SCF Done:  E(RB3LYP) =  -6788.98987195     A.U. after    7 cycles
 SCF Done:  E(RB3LYP) =  -6788.98987234     A.U. after    6 cycles
 Optimization completed.
    -- Stationary point found.

                         Standard orientation:
 ---------------------------------------------------------------------
 Center     Atomic      Atomic             Coordinates (Angstroms)
 Number     Number       Type             X           Y           Z
 ---------------------------------------------------------------------
      1          6           0       -2.419352    0.311665    0.527209
      2          7           0       -3.201286   -0.884166    0.155795
      3          6           0       -4.642212   -0.692946    0.393837
      4          6           0       -2.927398    1.548828   -0.236485
      5          6           0       -5.202176    0.495099   -0.390512
      6          6           0       -4.434898    1.774919   -0.045216
      7          6           0       -2.747197   -2.087647    0.842803
      8          1           0       -2.533127    0.511926    1.615032
      9          1           0       -4.845709   -0.544663    1.475077
     10          1           0       -5.160168   -1.611983    0.094693
     11          1           0       -2.721500    1.428651   -1.309051
     12          1           0       -2.373998    2.434099    0.097309
     13          1           0       -6.270515    0.605234   -0.167672
     14          1           0       -5.112608    0.286795   -1.464189
     15          1           0       -4.632379    2.049408    1.000580
     16          1           0       -4.777582    2.614037   -0.663488
     17         50           0       -0.228207    0.075143    0.157155
     18          6           0        0.080481   -0.973749   -1.753985
     19          6           0        1.435678   -1.686021   -1.908411
     20          6           0        1.599003   -2.405104   -3.258677
     21          6           0        2.951572   -3.114341   -3.410118
     22          6           0        0.728825   -1.008330    1.826379
     23          6           0        2.204723   -0.663159    2.088840
     24          6           0        2.800543   -1.408659    3.295559
     25          6           0        4.271503   -1.060639    3.561300
     26          6           0        0.638268    2.101244    0.034672
     27          6           0        2.024990    2.185969   -0.628376
     28          6           0        2.577298    3.619608   -0.707440
     29          6           0        3.959372    3.704244   -1.369706
     30          1           0       -2.781829   -1.999840    1.946688
     31          1           0       -3.374378   -2.937737    0.553834
     32          1           0       -1.718088   -2.330689    0.558671
     33          1           0       -0.743233   -1.689433   -1.865054
     34          1           0       -0.050520   -0.233869   -2.554330
     35          1           0        2.256815   -0.965026   -1.792739
     36          1           0        1.567915   -2.420301   -1.101274
     37          1           0        0.786292   -3.134293   -3.377559
     38          1           0        1.474349   -1.676151   -4.070787
     39          1           0        3.034338   -3.615609   -4.381077
     40          1           0        3.783604   -2.404291   -3.331219
     41          1           0        3.091688   -3.874067   -2.631688
     42          1           0        0.131637   -0.802416    2.724567
     43          1           0        0.624263   -2.083398    1.632579
     44          1           0        2.808535   -0.892159    1.199809
     45          1           0        2.312596    0.417756    2.253493
     46          1           0        2.202724   -1.180430    4.188382
     47          1           0        2.703405   -2.490611    3.133208
     48          1           0        4.662115   -1.608251    4.426381
     49          1           0        4.901187   -1.309995    2.698818
     50          1           0        4.396549    0.010151    3.762329
     51          1           0       -0.072190    2.730369   -0.516289
     52          1           0        0.681645    2.509124    1.053279
     53          1           0        2.744906    1.561503   -0.082602
     54          1           0        1.977517    1.770064   -1.644382
     55          1           0        1.866406    4.248303   -1.260509
     56          1           0        2.630250    4.039737    0.306054
     57          1           0        4.322109    4.737599   -1.408207
     58          1           0        4.700606    3.112627   -0.819172
     59          1           0        3.931585    3.323985   -2.397871
 ---------------------------------------------------------------------

 The electronic state is 1-A.
 Alpha  occ. eigenvalues -- **********-152.72040-142.87124-142.87119-142.87114
 Alpha  occ. eigenvalues --  -29.63666 -25.54979 -25.54967 -25.54947 -17.96529
 Alpha  occ. eigenvalues --  -17.96528 -17.96516 -17.96509 -17.96506 -14.31921
 Alpha  occ. eigenvalues --  -10.20541 -10.20259 -10.20203 -10.18398 -10.18350
 Alpha  occ. eigenvalues --  -10.18297 -10.18215 -10.18106 -10.18071 -10.18046
 Alpha  occ. eigenvalues --  -10.18000 -10.17971 -10.17345 -10.17312 -10.17250
 Alpha  occ. eigenvalues --  -10.17193 -10.17134 -10.16942  -4.73076  -3.35222
 Alpha  occ. eigenvalues --   -3.35216  -3.35176  -1.05953  -1.05921  -1.05919
 Alpha  occ. eigenvalues --   -1.05646  -1.05603  -0.91638  -0.79234  -0.78976
 Alpha  occ. eigenvalues --   -0.78736  -0.78662  -0.74202  -0.71822  -0.71214
 Alpha  occ. eigenvalues --   -0.71136  -0.68705  -0.62617  -0.61930  -0.61659
 Alpha  occ. eigenvalues --   -0.61500  -0.60275  -0.57664  -0.57360  -0.57281
 Alpha  occ. eigenvalues --   -0.54514  -0.48073  -0.46900  -0.46811  -0.46476
 Alpha  occ. eigenvalues --   -0.45927  -0.45062  -0.44179  -0.43116  -0.42265
 Alpha  occ. eigenvalues --   -0.42196  -0.42162  -0.41767  -0.41350  -0.41157
 Alpha  occ. eigenvalues --   -0.40688  -0.40231  -0.39009  -0.38975  -0.38361
 Alpha  occ. eigenvalues --   -0.37489  -0.36652  -0.35566  -0.35297  -0.35096
 Alpha  occ. eigenvalues --   -0.34916  -0.34738  -0.34624  -0.34411  -0.33540
 Alpha  occ. eigenvalues --   -0.33198  -0.33166  -0.32888  -0.32558  -0.32447
 Alpha  occ. eigenvalues --   -0.32288  -0.32236  -0.31135  -0.25059  -0.24995
 Alpha  occ. eigenvalues --   -0.24771  -0.20992
 Alpha virt. eigenvalues --    0.03189   0.03690   0.03859   0.04266   0.08008
 Alpha virt. eigenvalues --    0.08370   0.08813   0.09313   0.10079   0.10501
 Alpha virt. eigenvalues --    0.11230   0.11540   0.12045   0.12678   0.12810

 Mulliken atomic charges:
              1
     1  C   -0.265113
     2  N   -0.215174
     3  C   -0.309426
     4  C   -0.419091
     5  C   -0.393907
     6  C   -0.401593
     7  C   -0.550876
     8  H    0.193844
     9  H    0.160287
    10  H    0.211919
    11  H    0.214915
    12  H    0.223137
    13  H    0.212726
    14  H    0.200924
    15  H    0.188074
    16  H    0.221199
    17  Sn   0.555992
    18  C   -0.628892
    19  C   -0.358122
    20  C   -0.360838
    21  C   -0.630624
    22  C   -0.629345
    23  C   -0.360457
    24  C   -0.359511
    25  C   -0.630414
    26  C   -0.633507
    27  C   -0.363785
    28  C   -0.359583
    29  C   -0.630091
    30  H    0.186445
    31  H    0.223160
    32  H    0.218956
    33  H    0.229268
    34  H    0.210988
    35  H    0.196983
    36  H    0.195338
    37  H    0.192023
    38  H    0.190645
    39  H    0.216182
    40  H    0.197875
    41  H    0.197307
    42  H    0.218003
    43  H    0.213812
    44  H    0.201651
    45  H    0.198183
    46  H    0.190413
    47  H    0.191030
    48  H    0.216407
    49  H    0.198369
    50  H    0.197588
    51  H    0.220823
    52  H    0.218199
    53  H    0.203884
    54  H    0.199501
    55  H    0.191038
    56  H    0.190678
    57  H    0.216280
    58  H    0.198289
    59  H    0.198011
 Sum of Mulliken atomic charges =   0.00000

 Dipole moment (field-independent basis, Debye):
    X=             -0.4319    Y=              0.1201    Z=              0.5035  Tot=              0.6741
 Quadrupole moment (field-independent basis, Debye-Ang):
   XX=           -154.8796   YY=           -153.2739   ZZ=           -154.8413
   XY=             -0.0169   XZ=             -1.1364   YZ=             -0.7834

 Normal termination of Gaussian 09 at Thu Oct  6 10:45:27 2016.
