 Gaussian 09, Revision A.01,
 Gaussian 09:  EM64L-G09RevA.01  8-May-2009

 ------------------
 # opt b3lyp/dgdzvp
 ------------------

 -----------------------------
 2-SnBu3-N-Me-piperidine-ax,ax
 -----------------------------
 Symbolic Z-matrix:
 Charge =  0 Multiplicity = 1

 SCF Done:  E(RB3LYP) =  -6788.97113650     A.U. after   12 cycles
 SCF Done:  E(RB3LYP) =  -6788.98385139     A.U. after   10 cycles
 SCF Done:  E(RB3LYP) =  -6788.98512909     A.U. after   10 cycles
 SCF Done:  E(RB3LYP) =  -6788.98518338     A.U. after   12 cycles
 SCF Done:  E(RB3LYP) =  -6788.98529472     A.U. after   12 cycles
 SCF Done:  E(RB3LYP) =  -6788.98531417     A.U. after    9 cycles
 SCF Done:  E(RB3LYP) =  -6788.98533555     A.U. after    9 cycles
 SCF Done:  E(RB3LYP) =  -6788.98533834     A.U. after    8 cycles
 SCF Done:  E(RB3LYP) =  -6788.98533924     A.U. after    7 cycles
 SCF Done:  E(RB3LYP) =  -6788.98534003     A.U. after    7 cycles
 SCF Done:  E(RB3LYP) =  -6788.98523963     A.U. after    8 cycles
 SCF Done:  E(RB3LYP) =  -6788.98522122     A.U. after    8 cycles
 SCF Done:  E(RB3LYP) =  -6788.98523990     A.U. after    8 cycles
 SCF Done:  E(RB3LYP) =  -6788.98523963     A.U. after    8 cycles
 SCF Done:  E(RB3LYP) =  -6788.98523968     A.U. after    7 cycles
 SCF Done:  E(RB3LYP) =  -6788.98523982     A.U. after    7 cycles
 SCF Done:  E(RB3LYP) =  -6788.98524008     A.U. after    7 cycles
 SCF Done:  E(RB3LYP) =  -6788.98523987     A.U. after    7 cycles
 SCF Done:  E(RB3LYP) =  -6788.98523996     A.U. after    7 cycles
 SCF Done:  E(RB3LYP) =  -6788.98524023     A.U. after    7 cycles
 Optimization completed.
    -- Stationary point found.

                         Standard orientation:
 ---------------------------------------------------------------------
 Center     Atomic      Atomic             Coordinates (Angstroms)
 Number     Number       Type             X           Y           Z
 ---------------------------------------------------------------------
      1          6           0        2.374961    0.058790   -0.999206
      2          7           0        3.129637    1.062969   -0.222766
      3          6           0        3.605275    0.532033    1.062095
      4          6           0        3.111422   -1.290327   -1.154366
      5          6           0        4.394517   -0.788967    0.960524
      6          6           0        3.577126   -1.846044    0.200903
      7          6           0        4.177417    1.737550   -0.993060
      8          1           0        2.228401    0.483528   -2.001039
      9          1           0        2.731320    0.368601    1.706591
     10          1           0        4.211148    1.304507    1.549522
     11          1           0        3.994867   -1.157596   -1.798048
     12          1           0        2.467209   -2.015850   -1.667090
     13          1           0        4.647150   -1.142579    1.968332
     14          1           0        5.346220   -0.616622    0.440640
     15          1           0        2.703258   -2.131522    0.803913
     16          1           0        4.166571   -2.759680    0.057095
     17         50           0        0.256395   -0.034873   -0.293812
     18          6           0       -0.017687   -0.513402    1.843758
     19          6           0       -1.439244   -0.948049    2.242954
     20          6           0       -1.582821   -1.261415    3.742607
     21          6           0       -2.998148   -1.704462    4.137788
     22          6           0       -0.782789   -1.542187   -1.528013
     23          6           0       -2.300940   -1.346861   -1.690452
     24          6           0       -2.964925   -2.414595   -2.577134
     25          6           0       -4.478156   -2.216362   -2.739404
     26          6           0       -0.505456    1.981954   -0.730781
     27          6           0       -1.779229    2.430214    0.006036
     28          6           0       -2.198569    3.872789   -0.325642
     29          6           0       -3.468298    4.324018    0.409125
     30          1           0        4.986709    1.081574   -1.359888
     31          1           0        3.726549    2.226725   -1.863379
     32          1           0        4.635670    2.519048   -0.376387
     33          1           0        0.697432   -1.303255    2.104945
     34          1           0        0.279710    0.373723    2.417837
     35          1           0       -2.163990   -0.166775    1.976489
     36          1           0       -1.732613   -1.837590    1.668628
     37          1           0       -0.863204   -2.044867    4.016325
     38          1           0       -1.301085   -0.372971    4.323666
     39          1           0       -3.066115   -1.917277    5.210606
     40          1           0       -3.736640   -0.927676    3.905956
     41          1           0       -3.294867   -2.612822    3.599816
     42          1           0       -0.300810   -1.534859   -2.514995
     43          1           0       -0.574800   -2.530254   -1.096288
     44          1           0       -2.789388   -1.352746   -0.706445
     45          1           0       -2.506664   -0.356280   -2.119532
     46          1           0       -2.486211   -2.408049   -3.565810
     47          1           0       -2.768936   -3.407958   -2.151228
     48          1           0       -4.917261   -2.991131   -3.378036
     49          1           0       -4.990273   -2.255528   -1.770514
     50          1           0       -4.705217   -1.244210   -3.193282
     51          1           0        0.323290    2.663228   -0.498659
     52          1           0       -0.658486    2.043789   -1.816701
     53          1           0       -2.613987    1.757300   -0.234535
     54          1           0       -1.631809    2.348383    1.091963
     55          1           0       -1.371127    4.551726   -0.079274
     56          1           0       -2.351617    3.961396   -1.409792
     57          1           0       -3.736910    5.354254    0.149305
     58          1           0       -4.322580    3.684599    0.156021
     59          1           0       -3.334844    4.280503    1.496822
 ---------------------------------------------------------------------

 The electronic state is 1-A.
 Alpha  occ. eigenvalues -- **********-152.71760-142.86846-142.86836-142.86834
 Alpha  occ. eigenvalues --  -29.63391 -25.54711 -25.54683 -25.54670 -17.96257
 Alpha  occ. eigenvalues --  -17.96252 -17.96245 -17.96226 -17.96226 -14.31576
 Alpha  occ. eigenvalues --  -10.20600 -10.20211 -10.20002 -10.18359 -10.18318
 Alpha  occ. eigenvalues --  -10.18248 -10.18192 -10.18102 -10.18088 -10.18027
 Alpha  occ. eigenvalues --  -10.17984 -10.17771 -10.17314 -10.17246 -10.17226
 Alpha  occ. eigenvalues --  -10.17099 -10.17001 -10.16560  -4.72800  -3.34953
 Alpha  occ. eigenvalues --   -3.34924  -3.34904  -1.05672  -1.05652  -1.05627
 Alpha  occ. eigenvalues --   -1.05360  -1.05333  -0.91312  -0.78906  -0.78715
 Alpha  occ. eigenvalues --   -0.78664  -0.78449  -0.74226  -0.71743  -0.71152
 Alpha  occ. eigenvalues --   -0.70931  -0.68933  -0.62480  -0.61948  -0.61682
 Alpha  occ. eigenvalues --   -0.61347  -0.60956  -0.57670  -0.57275  -0.57070
 Alpha  occ. eigenvalues --   -0.53824  -0.48433  -0.46856  -0.46648  -0.46290
 Alpha  occ. eigenvalues --   -0.45730  -0.44886  -0.44188  -0.42709  -0.42143
 Alpha  occ. eigenvalues --   -0.41975  -0.41771  -0.41457  -0.41245  -0.41074
 Alpha  occ. eigenvalues --   -0.40721  -0.40466  -0.39003  -0.38847  -0.38163
 Alpha  occ. eigenvalues --   -0.37123  -0.36832  -0.35810  -0.35269  -0.35128
 Alpha  occ. eigenvalues --   -0.34897  -0.34671  -0.34502  -0.34184  -0.33671
 Alpha  occ. eigenvalues --   -0.33451  -0.33079  -0.32921  -0.32511  -0.32278
 Alpha  occ. eigenvalues --   -0.32123  -0.32050  -0.31479  -0.25599  -0.24902
 Alpha  occ. eigenvalues --   -0.24663  -0.19460
 Alpha virt. eigenvalues --    0.03590   0.03791   0.03969   0.04310   0.07500
 Alpha virt. eigenvalues --    0.08602   0.08844   0.09217   0.09817   0.10451
 Alpha virt. eigenvalues --    0.11243   0.11558   0.11944   0.12564   0.12638

 Mulliken atomic charges:
              1
     1  C   -0.284081
     2  N   -0.234211
     3  C   -0.373852
     4  C   -0.416939
     5  C   -0.404935
     6  C   -0.412764
     7  C   -0.553717
     8  H    0.218831
     9  H    0.224801
    10  H    0.222713
    11  H    0.204204
    12  H    0.231213
    13  H    0.217982
    14  H    0.198804
    15  H    0.195562
    16  H    0.228089
    17  Sn   0.608943
    18  C   -0.644654
    19  C   -0.364672
    20  C   -0.359844
    21  C   -0.630781
    22  C   -0.628423
    23  C   -0.360996
    24  C   -0.358478
    25  C   -0.630455
    26  C   -0.623511
    27  C   -0.363153
    28  C   -0.358311
    29  C   -0.630925
    30  H    0.179769
    31  H    0.218937
    32  H    0.213883
    33  H    0.214056
    34  H    0.216504
    35  H    0.202706
    36  H    0.197022
    37  H    0.189929
    38  H    0.191086
    39  H    0.216478
    40  H    0.198793
    41  H    0.197469
    42  H    0.212886
    43  H    0.213447
    44  H    0.199975
    45  H    0.198793
    46  H    0.190070
    47  H    0.190309
    48  H    0.215739
    49  H    0.198235
    50  H    0.197908
    51  H    0.233819
    52  H    0.210503
    53  H    0.198663
    54  H    0.194593
    55  H    0.192307
    56  H    0.189070
    57  H    0.215477
    58  H    0.197696
    59  H    0.197442
 Sum of Mulliken atomic charges =   0.00000

 Dipole moment (field-independent basis, Debye):
    X=              0.9490    Y=             -0.4571    Z=             -0.1172  Tot=              1.0598
 Quadrupole moment (field-independent basis, Debye-Ang):
   XX=           -153.2515   YY=           -155.6753   ZZ=           -153.0137
   XY=              0.1533   XZ=              0.1863   YZ=             -0.5849

 Normal termination of Gaussian 09 at Thu Oct  6 05:49:45 2016.
