 Gaussian 09, Revision A.01,
 Gaussian 09:  EM64L-G09RevA.01  8-May-2009

 -----------------------
 # opt b3lyp/6-31+g(d,p)
 -----------------------

 ------------------------
 tetraBn-ethene-C1,C1-syn
 ------------------------
 Symbolic Z-matrix:
 Charge =  0 Multiplicity = 1

 SCF Done:  E(RB3LYP) =  -1160.09947156     A.U. after   15 cycles
 SCF Done:  E(RB3LYP) =  -1160.11919675     A.U. after   15 cycles
 SCF Done:  E(RB3LYP) =  -1160.12234799     A.U. after   16 cycles
 SCF Done:  E(RB3LYP) =  -1160.12228150     A.U. after   15 cycles
 SCF Done:  E(RB3LYP) =  -1160.12391238     A.U. after   14 cycles
 SCF Done:  E(RB3LYP) =  -1160.12464414     A.U. after   15 cycles
 SCF Done:  E(RB3LYP) =  -1160.12475577     A.U. after   15 cycles
 SCF Done:  E(RB3LYP) =  -1160.12479636     A.U. after   15 cycles
 SCF Done:  E(RB3LYP) =  -1160.12481227     A.U. after   15 cycles
 SCF Done:  E(RB3LYP) =  -1160.12482513     A.U. after   15 cycles
 SCF Done:  E(RB3LYP) =  -1160.12552676     A.U. after   13 cycles
 SCF Done:  E(RB3LYP) =  -1160.12556800     A.U. after   12 cycles
 SCF Done:  E(RB3LYP) =  -1160.12557026     A.U. after   12 cycles
 SCF Done:  E(RB3LYP) =  -1160.12553136     A.U. after   11 cycles
 SCF Done:  E(RB3LYP) =  -1160.12553273     A.U. after   11 cycles
 SCF Done:  E(RB3LYP) =  -1160.12553482     A.U. after   12 cycles
 SCF Done:  E(RB3LYP) =  -1160.12553494     A.U. after   11 cycles
 SCF Done:  E(RB3LYP) =  -1160.12553471     A.U. after   11 cycles
 SCF Done:  E(RB3LYP) =  -1160.12553388     A.U. after   11 cycles
 SCF Done:  E(RB3LYP) =  -1160.12553337     A.U. after   11 cycles
 Optimization completed on the basis of negligible forces.
    -- Stationary point found.

                         Standard orientation:
 ---------------------------------------------------------------------
 Center     Atomic      Atomic             Coordinates (Angstroms)
 Number     Number       Type             X           Y           Z
 ---------------------------------------------------------------------
      1          6           0       -0.505305    0.140014    0.393836
      2          6           0        0.526584   -0.180872   -0.420425
      3          6           0        1.303068    0.853854   -1.227181
      4          6           0        2.458564    1.587879   -0.546843
      5          6           0        0.962059   -1.621591   -0.674420
      6          6           0        2.396610   -1.943865   -0.279327
      7          6           0       -1.288628   -0.891322    1.198417
      8          6           0       -2.471139   -1.585054    0.522651
      9          6           0       -0.930830    1.581960    0.652693
     10          6           0       -2.370910    1.913935    0.286606
     11          6           0        2.607914    1.665256    0.842402
     12          6           0        3.393803    2.258688   -1.351819
     13          6           0        4.442053    2.986885   -0.788484
     14          6           0        3.658087    2.392854    1.412713
     15          6           0        4.578380    3.058059    0.601600
     16          6           0        3.382623   -2.170324   -1.248103
     17          6           0        2.758459   -2.047460    1.072739
     18          6           0        4.065196   -2.364826    1.444991
     19          6           0        4.695280   -2.484282   -0.881757
     20          6           0        5.041232   -2.582248    0.467061
     21          6           0       -3.488846   -2.124219    1.325509
     22          6           0       -2.561228   -1.761388   -0.863443
     23          6           0       -3.630996   -2.460810   -1.431067
     24          6           0       -4.558352   -2.823805    0.764576
     25          6           0       -4.633009   -2.997377   -0.620760
     26          6           0       -2.783889    1.929315   -1.054550
     27          6           0       -3.309118    2.244581    1.272759
     28          6           0       -4.624872    2.576794    0.934463
     29          6           0       -4.093999    2.263334   -1.399021
     30          6           0       -5.021928    2.587080   -0.403704
     31          1           0        1.709055    0.359476   -2.117976
     32          1           0        0.610886    1.612423   -1.614118
     33          1           0        0.290325   -2.321361   -0.172491
     34          1           0        0.851677   -1.822580   -1.749063
     35          1           0       -0.607607   -1.672691    1.558537
     36          1           0       -1.667545   -0.403592    2.104395
     37          1           0       -0.798212    1.783428    1.724712
     38          1           0       -0.264251    2.278234    0.138611
     39          1           0        1.906582    1.144002    1.485467
     40          1           0        3.299753    2.206614   -2.434608
     41          1           0        5.153763    3.494930   -1.433492
     42          1           0        3.755882    2.434295    2.494153
     43          1           0        5.394458    3.621781    1.044382
     44          1           0        3.121392   -2.106649   -2.301933
     45          1           0        2.008264   -1.877115    1.841179
     46          1           0        4.322982   -2.442174    2.497681
     47          1           0        5.443896   -2.654112   -1.650637
     48          1           0        6.059281   -2.827732    0.755209
     49          1           0       -3.443916   -1.990659    2.404273
     50          1           0       -1.797305   -1.338732   -1.507630
     51          1           0       -3.680412   -2.581653   -2.509878
     52          1           0       -5.334835   -3.228386    1.408016
     53          1           0       -5.464896   -3.538997   -1.061692
     54          1           0       -2.072342    1.673809   -1.835867
     55          1           0       -3.007020    2.248157    2.317641
     56          1           0       -5.335914    2.828069    1.716623
     57          1           0       -4.392473    2.269570   -2.443732
     58          1           0       -6.042654    2.845374   -0.670438
 ---------------------------------------------------------------------

 The electronic state is 1-A.
 Alpha  occ. eigenvalues --  -10.20269 -10.20249 -10.20247 -10.20240 -10.20196
 Alpha  occ. eigenvalues --  -10.20169 -10.19866 -10.19858 -10.19696 -10.19616
 Alpha  occ. eigenvalues --  -10.19499 -10.19488 -10.19435 -10.19418 -10.19343
 Alpha  occ. eigenvalues --  -10.19321 -10.19319 -10.19307 -10.19281 -10.19251
 Alpha  occ. eigenvalues --  -10.19248 -10.19245 -10.19227 -10.19160 -10.19112
 Alpha  occ. eigenvalues --  -10.19095 -10.19066 -10.19065 -10.18844 -10.18807
 Alpha  occ. eigenvalues --   -0.86711  -0.85979  -0.85646  -0.85601  -0.83140
 Alpha  occ. eigenvalues --   -0.79070  -0.77412  -0.76768  -0.74794  -0.74695
 Alpha  occ. eigenvalues --   -0.74602  -0.74459  -0.74299  -0.71587  -0.69230
 Alpha  occ. eigenvalues --   -0.67740  -0.64695  -0.60835  -0.60724  -0.60618
 Alpha  occ. eigenvalues --   -0.60334  -0.59554  -0.58783  -0.58150  -0.57856
 Alpha  occ. eigenvalues --   -0.52509  -0.51241  -0.51231  -0.51114  -0.50064
 Alpha  occ. eigenvalues --   -0.48817  -0.47041  -0.46494  -0.46257  -0.45616
 Alpha  occ. eigenvalues --   -0.45580  -0.45123  -0.45009  -0.44932  -0.43092
 Alpha  occ. eigenvalues --   -0.42407  -0.42191  -0.42097  -0.41908  -0.41510
 Alpha  occ. eigenvalues --   -0.41345  -0.40876  -0.40612  -0.40182  -0.38953
 Alpha  occ. eigenvalues --   -0.38243  -0.37591  -0.36846  -0.36327  -0.35893
 Alpha  occ. eigenvalues --   -0.35304  -0.34920  -0.34548  -0.34525  -0.34408
 Alpha  occ. eigenvalues --   -0.34120  -0.33997  -0.33973  -0.33560  -0.32546
 Alpha  occ. eigenvalues --   -0.25924  -0.25697  -0.25342  -0.25103  -0.24951
 Alpha  occ. eigenvalues --   -0.24901  -0.24450  -0.23830  -0.23622
 Alpha virt. eigenvalues --   -0.02646  -0.01905  -0.01877  -0.01634  -0.00979
 Alpha virt. eigenvalues --   -0.00858  -0.00715  -0.00451  -0.00268   0.00189
 Alpha virt. eigenvalues --    0.00566   0.01259   0.01436   0.01547   0.01895

 Mulliken atomic charges:
              1
     1  C   -0.089873
     2  C   -0.057169
     3  C   -0.487574
     4  C    0.271542
     5  C   -1.028039
     6  C    1.176187
     7  C   -0.396758
     8  C    0.360517
     9  C   -1.087947
    10  C    1.267623
    11  C   -0.502591
    12  C    0.186135
    13  C   -0.076731
    14  C   -0.097386
    15  C   -0.068768
    16  C   -0.283879
    17  C   -0.366700
    18  C   -0.102916
    19  C   -0.173340
    20  C   -0.145000
    21  C    0.059337
    22  C   -0.442674
    23  C   -0.138047
    24  C   -0.088124
    25  C   -0.065914
    26  C   -0.366782
    27  C   -0.361498
    28  C   -0.153250
    29  C   -0.093234
    30  C   -0.149904
    31  H    0.142236
    32  H    0.161831
    33  H    0.153589
    34  H    0.141083
    35  H    0.159450
    36  H    0.137854
    37  H    0.140176
    38  H    0.153498
    39  H    0.106553
    40  H    0.110543
    41  H    0.122169
    42  H    0.118379
    43  H    0.120975
    44  H    0.104731
    45  H    0.109293
    46  H    0.118440
    47  H    0.122087
    48  H    0.122257
    49  H    0.108375
    50  H    0.110721
    51  H    0.118153
    52  H    0.122421
    53  H    0.121183
    54  H    0.108996
    55  H    0.106133
    56  H    0.121594
    57  H    0.118039
    58  H    0.122001
 Sum of Mulliken atomic charges =   0.00000

 Dipole moment (field-independent basis, Debye):
    X=              0.0204    Y=             -0.0178    Z=             -0.0047  Tot=              0.0275
 Quadrupole moment (field-independent basis, Debye-Ang):
   XX=           -171.5746   YY=           -189.4992   ZZ=           -163.5546
   XY=              1.8918   XZ=             -1.4030   YZ=              0.3156

 Normal termination of Gaussian 09 at Mon Oct  3 22:10:55 2016.
