 Gaussian 09, Revision A.01,
 Gaussian 09:  EM64L-G09RevA.01  8-May-2009

 -------------
 # mp2/cc-pVTZ
 -------------

 ------------------------------
 3,3-diMe-N-Me-azetidine-lp.hin
 ------------------------------
 Symbolic Z-matrix:
 Charge =  0 Multiplicity = 1

                         Standard orientation:
 ---------------------------------------------------------------------
 Center     Atomic      Atomic             Coordinates (Angstroms)
 Number     Number       Type             X           Y           Z
 ---------------------------------------------------------------------
      1          6           0       -0.839210   -0.023685    0.000000
      2          6           0        0.290529   -0.142839   -1.062770
      3          6           0        0.290524   -0.142853    1.062781
      4          7           0        1.147152    0.382169    0.000005
      5          6           0       -1.840082   -1.179788   -0.000012
      6          6           0       -1.528744    1.347480    0.000004
      7          6           0        2.511251   -0.093253   -0.000003
      8          1           0        0.211431    0.544768   -1.936707
      9          1           0        0.530111   -1.198424   -1.334415
     10          1           0        0.530104   -1.198447    1.334411
     11          1           0        0.211416    0.544744    1.936731
     12          1           0       -1.332028   -2.170782    0.000006
     13          1           0       -2.490022   -1.133088    0.903006
     14          1           0       -2.490002   -1.133082   -0.903033
     15          1           0       -2.173734    1.458011   -0.901083
     16          1           0       -2.173725    1.458034    0.901091
     17          1           0       -0.804134    2.193337   -0.000010
     18          1           0        2.563911   -1.206598    0.000054
     19          1           0        3.040467    0.287930   -0.903565
     20          1           0        3.040534    0.288036    0.903474
 ---------------------------------------------------------------------

 SCF Done:  E(RHF) =  -289.269709716     A.U. after   11 cycles
 E2 =    -0.1258590747D+01 EUMP2 =    -0.29052830046309D+03

 The electronic state is 1-A.
 Alpha  occ. eigenvalues --  -15.53933 -11.24460 -11.24459 -11.24101 -11.23753
 Alpha  occ. eigenvalues --  -11.21775 -11.21726  -1.25681  -1.06099  -0.94626
 Alpha  occ. eigenvalues --   -0.92380  -0.91341  -0.80376  -0.71871  -0.65395
 Alpha  occ. eigenvalues --   -0.62924  -0.61527  -0.57664  -0.57306  -0.55357
 Alpha  occ. eigenvalues --   -0.54118  -0.51739  -0.51279  -0.47383  -0.47024
 Alpha  occ. eigenvalues --   -0.42983  -0.42470  -0.35798
 Alpha virt. eigenvalues --    0.13453   0.15744   0.17301   0.18587   0.19754
 Alpha virt. eigenvalues --    0.19902   0.21342   0.21773   0.22062   0.23506
 Alpha virt. eigenvalues --    0.24017   0.24750   0.26645   0.26717   0.28634

 Mulliken atomic charges:
              1
     1  C    0.056636
     2  C   -0.094547
     3  C   -0.094547
     4  N   -0.226014
     5  C   -0.285034
     6  C   -0.308513
     7  C   -0.163745
     8  H    0.084729
     9  H    0.082267
    10  H    0.082267
    11  H    0.084728
    12  H    0.086657
    13  H    0.090033
    14  H    0.090037
    15  H    0.093650
    16  H    0.093653
    17  H    0.111143
    18  H    0.044637
    19  H    0.085980
    20  H    0.085983
 Sum of Mulliken atomic charges =   0.00000

 Dipole moment (field-independent basis, Debye):
    X=             -0.1406    Y=             -0.7321    Z=              0.0000  Tot=              0.7454
 Quadrupole moment (field-independent basis, Debye-Ang):
   XX=            -46.8924   YY=            -47.7931   ZZ=            -45.4749
   XY=             -1.2340   XZ=              0.0000   YZ=              0.0000

 Normal termination of Gaussian 09 at Sun Jun  5 00:52:15 2016.
