 Gaussian 09, Revision A.01,
 Gaussian 09:  EM64L-G09RevA.01  8-May-2009

 -------------
 # mp2/cc-pVTZ
 -------------

 -------------------------------
 3,3-diMe-N-Me-azetidine-nlp.hin
 -------------------------------
 Symbolic Z-matrix:
 Charge =  0 Multiplicity = 1

                         Standard orientation:
 ---------------------------------------------------------------------
 Center     Atomic      Atomic             Coordinates (Angstroms)
 Number     Number       Type             X           Y           Z
 ---------------------------------------------------------------------
      1          6           0       -0.834355   -0.022061    0.000016
      2          6           0        0.288421   -0.170667   -1.064203
      3          6           0        0.288427   -0.170674    1.064212
      4          7           0        1.133002    0.362741    0.000000
      5          6           0       -1.866153   -1.150559   -0.000006
      6          6           0       -1.486479    1.367534    0.000005
      7          6           0        2.503446   -0.085698   -0.000010
      8          1           0        0.225935    0.515113   -1.939809
      9          1           0        0.523689   -1.230831   -1.321347
     10          1           0        0.523714   -1.230842    1.321339
     11          1           0        0.225978    0.515097    1.939825
     12          1           0       -1.384436   -2.154634   -0.000007
     13          1           0       -2.514579   -1.086524    0.903038
     14          1           0       -2.514557   -1.086490   -0.903071
     15          1           0       -2.128203    1.495965   -0.901081
     16          1           0       -2.128291    1.495956    0.901029
     17          1           0       -0.737977    2.192509    0.000034
     18          1           0        2.579977   -1.197555   -0.000037
     19          1           0        3.018942    0.312929   -0.902936
     20          1           0        3.018954    0.312863    0.902948
 ---------------------------------------------------------------------

 SCF Done:  E(RHF) =  -289.267020163     A.U. after   11 cycles
 E2 =    -0.1259110182D+01 EUMP2 =    -0.29052613034481D+03

 The electronic state is 1-A.
 Alpha  occ. eigenvalues --  -15.53865 -11.24396 -11.24394 -11.23997 -11.23784
 Alpha  occ. eigenvalues --  -11.21728 -11.21635  -1.25991  -1.06072  -0.94663
 Alpha  occ. eigenvalues --   -0.92338  -0.91470  -0.80199  -0.71995  -0.65486
 Alpha  occ. eigenvalues --   -0.62904  -0.61505  -0.57694  -0.57491  -0.55270
 Alpha  occ. eigenvalues --   -0.54059  -0.51729  -0.51269  -0.47358  -0.46980
 Alpha  occ. eigenvalues --   -0.43124  -0.42166  -0.35857
 Alpha virt. eigenvalues --    0.13471   0.15755   0.17279   0.18594   0.19762
 Alpha virt. eigenvalues --    0.19920   0.21359   0.21740   0.22032   0.23666
 Alpha virt. eigenvalues --    0.24051   0.24636   0.26697   0.26738   0.28652

 Mulliken atomic charges:
              1
     1  C    0.061480
     2  C   -0.099529
     3  C   -0.099533
     4  N   -0.222492
     5  C   -0.284515
     6  C   -0.309740
     7  C   -0.164509
     8  H    0.086072
     9  H    0.083715
    10  H    0.083714
    11  H    0.086076
    12  H    0.086157
    13  H    0.089382
    14  H    0.089380
    15  H    0.093826
    16  H    0.093827
    17  H    0.111488
    18  H    0.044984
    19  H    0.085112
    20  H    0.085108
 Sum of Mulliken atomic charges =   0.00000

 Dipole moment (field-independent basis, Debye):
    X=             -0.0996    Y=             -0.6958    Z=              0.0000  Tot=              0.7029
 Quadrupole moment (field-independent basis, Debye-Ang):
   XX=            -47.0433   YY=            -47.6858   ZZ=            -45.4672
   XY=             -1.1703   XZ=              0.0000   YZ=             -0.0001

 Normal termination of Gaussian 09 at Sun Jun  5 00:22:33 2016.
