 Gaussian 09, Revision A.01,
 Gaussian 09:  EM64L-G09RevA.01  8-May-2009

 -------------
 # mp2/cc-pVTZ
 -------------

 ---------------------------------------
 3,3-Dimethil-N-methylpyrrolidine-lp.hin
 ---------------------------------------
 Symbolic Z-matrix:
 Charge =  0 Multiplicity = 1

                         Standard orientation:
 ---------------------------------------------------------------------
 Center     Atomic      Atomic             Coordinates (Angstroms)
 Number     Number       Type             X           Y           Z
 ---------------------------------------------------------------------
      1          6           0       -1.023848   -0.075601   -0.021194
      2          6           0       -0.490587    1.372965    0.075107
      3          6           0        1.042331    1.231860    0.023897
      4          6           0        0.238061   -0.863636   -0.426039
      5          7           0        1.300880   -0.173667    0.278539
      6          6           0        2.631921   -0.601230   -0.103559
      7          1           0       -0.821024    1.867551    1.018353
      8          1           0       -0.849094    2.002857   -0.772749
      9          6           0       -2.149336   -0.228586   -1.055826
     10          6           0       -1.524675   -0.552357    1.357407
     11          1           0        1.558175    1.874326    0.776761
     12          1           0        1.408362    1.515581   -0.992625
     13          1           0        0.400169   -0.799241   -1.528591
     14          1           0        0.185261   -1.939793   -0.137678
     15          1           0        2.816753   -0.451705   -1.192652
     16          1           0        3.396548   -0.027955    0.470078
     17          1           0        2.767825   -1.681853    0.133267
     18          1           0       -1.824878    0.108282   -2.066799
     19          1           0       -3.039164    0.376856   -0.768826
     20          1           0       -2.468432   -1.292220   -1.142833
     21          1           0       -2.402426    0.045182    1.694314
     22          1           0       -0.735649   -0.463083    2.138748
     23          1           0       -1.841780   -1.619602    1.322700
 ---------------------------------------------------------------------

 SCF Done:  E(RHF) =  -328.350916667     A.U. after   11 cycles
 E2 =    -0.1435158173D+01 EUMP2 =    -0.32978607484042D+03

 The electronic state is 1-A.
 Alpha  occ. eigenvalues --  -15.53940 -11.24554 -11.24540 -11.24282 -11.23261
 Alpha  occ. eigenvalues --  -11.21947 -11.21812 -11.21245  -1.24237  -1.08462
 Alpha  occ. eigenvalues --   -0.98934  -0.93514  -0.91924  -0.86992  -0.77909
 Alpha  occ. eigenvalues --   -0.73343  -0.65884  -0.63983  -0.60120  -0.59466
 Alpha  occ. eigenvalues --   -0.57457  -0.55754  -0.55398  -0.53277  -0.50992
 Alpha  occ. eigenvalues --   -0.49221  -0.48979  -0.48318  -0.44973  -0.44281
 Alpha  occ. eigenvalues --   -0.44012  -0.35133
 Alpha virt. eigenvalues --    0.13480   0.15375   0.17035   0.17428   0.18942
 Alpha virt. eigenvalues --    0.19941   0.20649   0.20929   0.21804   0.23027
 Alpha virt. eigenvalues --    0.23610   0.25116   0.25812   0.26249   0.27634

 Mulliken atomic charges:
              1
     1  C    0.045655
     2  C   -0.197692
     3  C   -0.071662
     4  C   -0.062553
     5  N   -0.226121
     6  C   -0.176485
     7  H    0.095959
     8  H    0.095575
     9  C   -0.293431
    10  C   -0.302278
    11  H    0.086249
    12  H    0.060319
    13  H    0.065998
    14  H    0.088538
    15  H    0.052431
    16  H    0.090277
    17  H    0.089509
    18  H    0.089548
    19  H    0.095790
    20  H    0.092672
    21  H    0.090078
    22  H    0.104616
    23  H    0.087007
 Sum of Mulliken atomic charges =   0.00000

 Dipole moment (field-independent basis, Debye):
    X=              0.0419    Y=              0.1611    Z=             -0.5882  Tot=              0.6113
 Quadrupole moment (field-independent basis, Debye-Ang):
   XX=            -53.0696   YY=            -52.2209   ZZ=            -54.7756
   XY=             -0.1317   XZ=             -0.4651   YZ=              0.5733

 Normal termination of Gaussian 09 at Sun Jun  5 00:07:52 2016.
