 Gaussian 09, Revision A.01,
 Gaussian 09:  EM64L-G09RevA.01  8-May-2009

 -------------
 # mp2/cc-pVTZ
 -------------

 ------------------------------
 3,3-diMe-N-Me-azetidine-NI.hin
 ------------------------------
 Symbolic Z-matrix:
 Charge =  0 Multiplicity = 1

                         Standard orientation:
 ---------------------------------------------------------------------
 Center     Atomic      Atomic             Coordinates (Angstroms)
 Number     Number       Type             X           Y           Z
 ---------------------------------------------------------------------
      1          6           0       -0.825913    0.000230   -0.000009
      2          6           0        0.255314    0.003403    1.130859
      3          6           0        0.255429    0.003505   -1.130763
      4          7           0        1.136641   -0.002804    0.000100
      5          6           0       -1.686993    1.268334   -0.000007
      6          6           0       -1.677842   -1.274226   -0.000092
      7          6           0        2.563011    0.000404   -0.000043
      8          1           0        0.341543   -0.937615    1.720887
      9          1           0        0.347424    0.949943    1.711044
     10          1           0        0.347607    0.950096   -1.710857
     11          1           0        0.341736   -0.937455   -1.720874
     12          1           0       -1.063066    2.191162   -0.000022
     13          1           0       -2.339325    1.299688   -0.902111
     14          1           0       -2.339305    1.299701    0.902116
     15          1           0       -2.330014   -1.310335    0.901970
     16          1           0       -2.330011   -1.310236   -0.902149
     17          1           0       -1.047364   -2.192604   -0.000137
     18          1           0        2.928133    1.052030   -0.001382
     19          1           0        2.944138   -0.521189    0.906735
     20          1           0        2.943973   -0.523453   -0.905595
 ---------------------------------------------------------------------

 SCF Done:  E(RHF) =  -289.250652758     A.U. after   11 cycles
 E2 =    -0.1255773451D+01 EUMP2 =    -0.29050642620925D+03

 The electronic state is 1-A.
 Alpha  occ. eigenvalues --  -15.51664 -11.24348 -11.24341 -11.24188 -11.23961
 Alpha  occ. eigenvalues --  -11.21895 -11.21866  -1.25064  -1.05912  -0.95047
 Alpha  occ. eigenvalues --   -0.92618  -0.92492  -0.78516  -0.71307  -0.65760
 Alpha  occ. eigenvalues --   -0.62997  -0.62044  -0.56705  -0.56400  -0.56160
 Alpha  occ. eigenvalues --   -0.56039  -0.51563  -0.51337  -0.49042  -0.46880
 Alpha  occ. eigenvalues --   -0.44168  -0.41087  -0.31372
 Alpha virt. eigenvalues --    0.13034   0.15755   0.17487   0.18771   0.19725
 Alpha virt. eigenvalues --    0.19909   0.20946   0.21365   0.22124   0.22995
 Alpha virt. eigenvalues --    0.23838   0.24643   0.26389   0.26995   0.28330

 Mulliken atomic charges:
              1
     1  C    0.068807
     2  C   -0.099439
     3  C   -0.099421
     4  N   -0.165499
     5  C   -0.292838
     6  C   -0.293287
     7  C   -0.159737
     8  H    0.070900
     9  H    0.066923
    10  H    0.066912
    11  H    0.070901
    12  H    0.093101
    13  H    0.090332
    14  H    0.090330
    15  H    0.090785
    16  H    0.090789
    17  H    0.093792
    18  H    0.067238
    19  H    0.074736
    20  H    0.074675
 Sum of Mulliken atomic charges =   0.00000

 Dipole moment (field-independent basis, Debye):
    X=             -0.1725    Y=             -0.0910    Z=              0.0004  Tot=              0.1950
 Quadrupole moment (field-independent basis, Debye-Ang):
   XX=            -47.2913   YY=            -46.7766   ZZ=            -46.1850
   XY=             -0.3351   XZ=              0.0015   YZ=              0.0000

 Normal termination of Gaussian 09 at Sun Jun  5 00:37:34 2016.
