 Gaussian 09, Revision A.01,
 Gaussian 09:  EM64L-G09RevA.01  8-May-2009

 -------------
 # mp2/cc-pVTZ
 -------------

 -------------------
 ethilamine-ecl2.hin
 -------------------
 Symbolic Z-matrix:
 Charge =  0 Multiplicity = 1

                         Standard orientation:
 ---------------------------------------------------------------------
 Center     Atomic      Atomic             Coordinates (Angstroms)
 Number     Number       Type             X           Y           Z
 ---------------------------------------------------------------------
      1          6           0        1.277230   -0.229324   -0.000006
      2          6           0       -0.058861    0.530208    0.000004
      3          7           0       -1.195899   -0.359051   -0.000001
      4          1           0       -1.791015   -0.191311    0.810541
      5          1           0       -1.791006   -0.191311   -0.810546
      6          1           0        1.135588   -1.334496   -0.000013
      7          1           0        1.887702    0.023245   -0.897825
      8          1           0        1.887649    0.023187    0.897867
      9          1           0       -0.133913    1.189381    0.896639
     10          1           0       -0.133930    1.189361   -0.896646
 ---------------------------------------------------------------------

 SCF Done:  E(RHF) =  -134.290493972     A.U. after   11 cycles
 E2 =    -0.5796951708D+00 EUMP2 =    -0.13487018914316D+03

 The electronic state is 1-A.
 Alpha  occ. eigenvalues --  -15.53058 -11.24942 -11.20939  -1.17572  -0.97372
 Alpha  occ. eigenvalues --   -0.81069  -0.66640  -0.62069  -0.56020  -0.52873
 Alpha  occ. eigenvalues --   -0.49932  -0.46483  -0.38353
 Alpha virt. eigenvalues --    0.13645   0.17293   0.17575   0.19452   0.22612
 Alpha virt. eigenvalues --    0.23941   0.28249   0.32857   0.33788   0.37900
 Alpha virt. eigenvalues --    0.40063   0.44819   0.51040   0.51234   0.57394

 Mulliken atomic charges:
              1
     1  C   -0.269024
     2  C   -0.057375
     3  N   -0.366240
     4  H    0.141519
     5  H    0.141520
     6  H    0.101812
     7  H    0.080231
     8  H    0.080227
     9  H    0.073667
    10  H    0.073664
 Sum of Mulliken atomic charges =   0.00000

 Dipole moment (field-independent basis, Debye):
    X=             -0.7327    Y=              1.2275    Z=              0.0000  Tot=              1.4295
 Quadrupole moment (field-independent basis, Debye-Ang):
   XX=            -19.1937   YY=            -22.9482   ZZ=            -19.2333
   XY=             -1.0644   XZ=              0.0000   YZ=              0.0000

 Normal termination of Gaussian 09 at Sat Jun  4 22:01:46 2016.
