 Gaussian 09, Revision A.01,
 Gaussian 09:  EM64L-G09RevA.01  8-May-2009

 -------------
 # mp2/cc-pVTZ
 -------------

 -------------
 ftrktktku.hin
 -------------
 Symbolic Z-matrix:
 Charge =  0 Multiplicity = 1

                         Standard orientation:
 ---------------------------------------------------------------------
 Center     Atomic      Atomic             Coordinates (Angstroms)
 Number     Number       Type             X           Y           Z
 ---------------------------------------------------------------------
      1          6           0       -1.291080   -0.616572    0.000123
      2          6           0        0.001079    0.178004   -0.001008
      3          8           0       -0.011544    1.388424    0.000256
      4          6           0        1.301280   -0.602755    0.000132
      5          1           0       -1.889738   -0.366803    0.905371
      6          1           0       -1.889667   -0.369292   -0.905853
      7          1           0       -1.095614   -1.712813    0.001705
      8          1           0        2.180518    0.081236   -0.000794
      9          1           0        1.359555   -1.244647    0.908262
     10          1           0        1.359621   -1.247133   -0.906224
 ---------------------------------------------------------------------

 SCF Done:  E(RHF) =  -192.028900541     A.U. after   11 cycles
 E2 =    -0.7419023233D+00 EUMP2 =    -0.19277080286448D+03

 The electronic state is 1-A.
 Alpha  occ. eigenvalues --  -20.54073 -11.33266 -11.24318 -11.24272  -1.38464
 Alpha  occ. eigenvalues --   -1.03458  -0.96028  -0.73794  -0.63900  -0.63295
 Alpha  occ. eigenvalues --   -0.61793  -0.56128  -0.55569  -0.52784  -0.48341
 Alpha  occ. eigenvalues --   -0.41197
 Alpha virt. eigenvalues --    0.12616   0.14353   0.17620   0.20587   0.20604
 Alpha virt. eigenvalues --    0.21600   0.22755   0.26760   0.32905   0.35517
 Alpha virt. eigenvalues --    0.38992   0.39461   0.41719   0.45167   0.50473

 Mulliken atomic charges:
              1
     1  C   -0.281948
     2  C    0.296394
     3  O   -0.359462
     4  C   -0.285943
     5  H    0.115988
     6  H    0.115840
     7  H    0.089160
     8  H    0.119911
     9  H    0.095083
    10  H    0.094976
 Sum of Mulliken atomic charges =   0.00000

 Dipole moment (field-independent basis, Debye):
    X=             -0.0107    Y=             -3.2206    Z=             -0.0010  Tot=              3.2206
 Quadrupole moment (field-independent basis, Debye-Ang):
   XX=            -23.4524   YY=            -29.7638   ZZ=            -24.1603
   XY=             -0.0172   XZ=              0.0005   YZ=             -0.0018

 Normal termination of Gaussian 09 at Sat Jun  4 22:00:28 2016.
