 Gaussian 09, Revision A.01,
 Gaussian 09:  EM64L-G09RevA.01  8-May-2009

 -------------
 # mp2/cc-pVTZ
 -------------

 ------------------------------
 N-Methylo piperidine ch-ax.hin
 ------------------------------
 Symbolic Z-matrix:
 Charge =  0 Multiplicity = 1

                         Standard orientation:
 ---------------------------------------------------------------------
 Center     Atomic      Atomic             Coordinates (Angstroms)
 Number     Number       Type             X           Y           Z
 ---------------------------------------------------------------------
      1          6           0        1.773969   -0.000009   -0.166661
      2          6           0        0.907816    1.256529   -0.319446
      3          6           0        0.907794   -1.256537   -0.319448
      4          6           0       -0.292867    1.198274    0.638365
      5          6           0       -0.292857   -1.198253    0.638393
      6          7           0       -1.111051    0.000006    0.496271
      7          6           0       -1.877437   -0.000009   -0.740796
      8          1           0        2.249478   -0.000011    0.843275
      9          1           0        2.598430   -0.000012   -0.919628
     10          1           0        0.563481    1.354022   -1.375463
     11          1           0        1.521018    2.164742   -0.104475
     12          1           0        1.520991   -2.164749   -0.104499
     13          1           0        0.563465   -1.354025   -1.375474
     14          1           0       -0.927504    2.107972    0.511902
     15          1           0        0.087950    1.242970    1.687121
     16          1           0        0.087979   -1.242920    1.687141
     17          1           0       -0.927500   -2.107955    0.511966
     18          1           0       -1.236135   -0.000099   -1.649544
     19          1           0       -2.541460   -0.894118   -0.784274
     20          1           0       -2.541349    0.894178   -0.784380
 ---------------------------------------------------------------------

 SCF Done:  E(RHF) =  -289.303189552     A.U. after   11 cycles
 E2 =    -0.1256703479D+01 EUMP2 =    -0.29055989303132D+03

 The electronic state is 1-A.
 Alpha  occ. eigenvalues --  -15.53924 -11.24635 -11.24633 -11.24335 -11.22257
 Alpha  occ. eigenvalues --  -11.21967 -11.21960  -1.22821  -1.05985  -1.00557
 Alpha  occ. eigenvalues --   -0.93269  -0.83873  -0.82980  -0.74015  -0.65526
 Alpha  occ. eigenvalues --   -0.62794  -0.60820  -0.60054  -0.56492  -0.55758
 Alpha  occ. eigenvalues --   -0.52433  -0.50889  -0.49911  -0.48305  -0.47706
 Alpha  occ. eigenvalues --   -0.44926  -0.43995  -0.33899
 Alpha virt. eigenvalues --    0.13643   0.15657   0.16672   0.16817   0.19649
 Alpha virt. eigenvalues --    0.19764   0.21373   0.21830   0.21999   0.24396
 Alpha virt. eigenvalues --    0.24405   0.26792   0.27592   0.28359   0.32769

 Mulliken atomic charges:
              1
     1  C   -0.175802
     2  C   -0.202621
     3  C   -0.202626
     4  C   -0.087050
     5  C   -0.087047
     6  N   -0.221094
     7  C   -0.184098
     8  H    0.082712
     9  H    0.099260
    10  H    0.088714
    11  H    0.101099
    12  H    0.101104
    13  H    0.088713
    14  H    0.094931
    15  H    0.085258
    16  H    0.085263
    17  H    0.094928
    18  H    0.054426
    19  H    0.091966
    20  H    0.091965
 Sum of Mulliken atomic charges =   0.00000

 Dipole moment (field-independent basis, Debye):
    X=              0.6232    Y=              0.0000    Z=             -0.6666  Tot=              0.9125
 Quadrupole moment (field-independent basis, Debye-Ang):
   XX=            -47.7350   YY=            -45.2825   ZZ=            -47.0847
   XY=             -0.0001   XZ=              2.3143   YZ=             -0.0001

 Normal termination of Gaussian 09 at Sat Jun  4 17:53:24 2016.
