 Gaussian 09, Revision A.01,
 Gaussian 09:  EM64L-G09RevA.01  8-May-2009

 -------------
 # mp2/cc-pVTZ
 -------------

 ------------------------
 N-Methylazetidine-NI.hin
 ------------------------
 Symbolic Z-matrix:
 Charge =  0 Multiplicity = 1

                         Standard orientation:
 ---------------------------------------------------------------------
 Center     Atomic      Atomic             Coordinates (Angstroms)
 Number     Number       Type             X           Y           Z
 ---------------------------------------------------------------------
      1          7           0       -0.421719   -0.000088   -0.003218
      2          6           0        1.543752    0.000105   -0.004788
      3          6           0        0.463698    1.127415    0.003955
      4          6           0        0.463916   -1.127415    0.003957
      5          1           0        2.176928    0.000174    0.914588
      6          1           0        2.160820    0.000165   -0.935135
      7          1           0        0.386916    1.717958   -0.938250
      8          1           0        0.385680   -1.702935    0.955257
      9          1           0        0.387243   -1.717976   -0.938246
     10          6           0       -1.847965   -0.000038   -0.001612
     11          1           0        0.385343    1.702927    0.955258
     12          1           0       -2.228353   -0.905785   -0.525560
     13          1           0       -2.228334    0.906648   -0.523947
     14          1           0       -2.214622   -0.000961    1.049485
 ---------------------------------------------------------------------

 SCF Done:  E(RHF) =  -211.154080610     A.U. after   11 cycles
 E2 =    -0.9002024517D+00 EUMP2 =    -0.21205428306179D+03

 The electronic state is 1-A.
 Alpha  occ. eigenvalues --  -15.51727 -11.24855 -11.24853 -11.24044 -11.23220
 Alpha  occ. eigenvalues --   -1.24818  -1.01352  -0.92349  -0.85635  -0.72765
 Alpha  occ. eigenvalues --   -0.67077  -0.64398  -0.60044  -0.56506  -0.55496
 Alpha  occ. eigenvalues --   -0.49380  -0.49328  -0.47181  -0.43299  -0.31441
 Alpha virt. eigenvalues --    0.13623   0.15905   0.18384   0.18440   0.20937
 Alpha virt. eigenvalues --    0.20954   0.22449   0.23889   0.24796   0.25800
 Alpha virt. eigenvalues --    0.30145   0.30162   0.32991   0.33542   0.40997

 Mulliken atomic charges:
              1
     1  N   -0.157649
     2  C   -0.176048
     3  C   -0.095378
     4  C   -0.095353
     5  H    0.093945
     6  H    0.095201
     7  H    0.070850
     8  H    0.065858
     9  H    0.070852
    10  C   -0.155595
    11  H    0.065856
    12  H    0.075224
    13  H    0.075267
    14  H    0.066970
 Sum of Mulliken atomic charges =   0.00000

 Dipole moment (field-independent basis, Debye):
    X=              0.1175    Y=              0.0003    Z=             -0.0970  Tot=              0.1524
 Quadrupole moment (field-independent basis, Debye-Ang):
   XX=            -33.4167   YY=            -32.9229   ZZ=            -32.4454
   XY=             -0.0012   XZ=              0.2742   YZ=              0.0000

 Normal termination of Gaussian 09 at Sat Jun  4 18:02:15 2016.
