 Gaussian 09, Revision A.01,
 Gaussian 09:  EM64L-G09RevA.01  8-May-2009

 -------------
 # mp2/cc-pVTZ
 -------------

 --------------------------------
 N-Methylo piperidine-sofa-eq.hin
 --------------------------------
 Symbolic Z-matrix:
 Charge =  0 Multiplicity = 1

                         Standard orientation:
 ---------------------------------------------------------------------
 Center     Atomic      Atomic             Coordinates (Angstroms)
 Number     Number       Type             X           Y           Z
 ---------------------------------------------------------------------
      1          6           0        1.890382    0.000000    0.276965
      2          6           0        1.161124    1.249239   -0.230147
      3          6           0        1.161127   -1.249232   -0.230149
      4          6           0       -0.322550    1.203072    0.165594
      5          6           0       -0.322540   -1.203077    0.165598
      6          7           0       -0.978864   -0.000005   -0.330000
      7          6           0       -2.393625    0.000004    0.013779
      8          1           0        1.903986    0.000002    1.393040
      9          1           0        2.951861    0.000006   -0.069489
     10          1           0        1.246194    1.304613   -1.341945
     11          1           0        1.642998    2.167645    0.183842
     12          1           0        1.643004   -2.167631    0.183838
     13          1           0        1.246200   -1.304607   -1.341950
     14          1           0       -0.828269    2.105967   -0.254056
     15          1           0       -0.410283    1.259910    1.277264
     16          1           0       -0.410276   -1.259912    1.277257
     17          1           0       -0.828266   -2.105974   -0.254057
     18          1           0       -2.547747   -0.000010    1.118052
     19          1           0       -2.900433    0.895066   -0.415814
     20          1           0       -2.900431   -0.895072   -0.415822
 ---------------------------------------------------------------------

 SCF Done:  E(RHF) =  -289.310330592     A.U. after   11 cycles
 E2 =    -0.1255153436D+01 EUMP2 =    -0.29056548402818D+03

 The electronic state is 1-A.
 Alpha  occ. eigenvalues --  -15.54230 -11.24709 -11.24708 -11.24498 -11.22142
 Alpha  occ. eigenvalues --  -11.22090 -11.22054  -1.22937  -1.06451  -1.00544
 Alpha  occ. eigenvalues --   -0.92581  -0.83970  -0.82421  -0.74616  -0.65136
 Alpha  occ. eigenvalues --   -0.62060  -0.61680  -0.60067  -0.57253  -0.54933
 Alpha  occ. eigenvalues --   -0.52825  -0.52768  -0.49462  -0.48272  -0.46094
 Alpha  occ. eigenvalues --   -0.43908  -0.43674  -0.35214
 Alpha virt. eigenvalues --    0.14134   0.15694   0.16451   0.16614   0.19568
 Alpha virt. eigenvalues --    0.20389   0.21229   0.22436   0.22489   0.23319
 Alpha virt. eigenvalues --    0.24358   0.26155   0.27061   0.27867   0.30789

 Mulliken atomic charges:
              1
     1  C   -0.180415
     2  C   -0.173338
     3  C   -0.173337
     4  C   -0.064823
     5  C   -0.064824
     6  N   -0.228091
     7  C   -0.175097
     8  H    0.083916
     9  H    0.097966
    10  H    0.084338
    11  H    0.095114
    12  H    0.095116
    13  H    0.084337
    14  H    0.088131
    15  H    0.055495
    16  H    0.055503
    17  H    0.088129
    18  H    0.054952
    19  H    0.088468
    20  H    0.088460
 Sum of Mulliken atomic charges =   0.00000

 Dipole moment (field-independent basis, Debye):
    X=              0.0688    Y=              0.0000    Z=              0.5602  Tot=              0.5644
 Quadrupole moment (field-independent basis, Debye-Ang):
   XX=            -45.6094   YY=            -45.2872   ZZ=            -47.8906
   XY=             -0.0001   XZ=             -0.3746   YZ=             -0.0001

 Normal termination of Gaussian 09 at Sat Jun  4 03:52:42 2016.
