 Gaussian 09, Revision A.01,
 Gaussian 09:  EM64L-G09RevA.01  8-May-2009

 -------------
 # mp2/cc-pVTZ
 -------------

 ----------------------------------
 N-Methylo piperidine ch-eq-nlp.hin
 ----------------------------------
 Symbolic Z-matrix:
 Charge =  0 Multiplicity = 1

                         Standard orientation:
 ---------------------------------------------------------------------
 Center     Atomic      Atomic             Coordinates (Angstroms)
 Number     Number       Type             X           Y           Z
 ---------------------------------------------------------------------
      1          6           0       -1.891212    0.000004    0.269375
      2          6           0       -1.158628   -1.248650   -0.234278
      3          6           0       -1.158624    1.248650   -0.234279
      4          6           0        0.320313   -1.206033    0.175726
      5          6           0        0.320317    1.206031    0.175722
      6          7           0        0.975837   -0.000002   -0.303241
      7          6           0        2.395903   -0.000002   -0.001002
      8          1           0       -1.911572    0.000006    1.385360
      9          1           0       -2.950485    0.000005   -0.083793
     10          1           0       -1.233397   -1.300432   -1.347018
     11          1           0       -1.645422   -2.167747    0.172375
     12          1           0       -1.645409    2.167751    0.172366
     13          1           0       -1.233390    1.300426   -1.347020
     14          1           0        0.831524   -2.099402   -0.255086
     15          1           0        0.404401   -1.271970    1.286934
     16          1           0        0.404414    1.271977    1.286941
     17          1           0        0.831532    2.099410   -0.255084
     18          1           0        2.578965   -0.000004    1.098625
     19          1           0        2.884787   -0.894535   -0.449748
     20          1           0        2.884788    0.894531   -0.449742
 ---------------------------------------------------------------------

 SCF Done:  E(RHF) =  -289.310710691     A.U. after   11 cycles
 E2 =    -0.1254677695D+01 EUMP2 =    -0.29056538838595D+03

 The electronic state is 1-A.
 Alpha  occ. eigenvalues --  -15.53982 -11.24668 -11.24666 -11.24458 -11.22127
 Alpha  occ. eigenvalues --  -11.22068 -11.22037  -1.22993  -1.06457  -1.00603
 Alpha  occ. eigenvalues --   -0.92677  -0.84028  -0.82346  -0.74539  -0.65150
 Alpha  occ. eigenvalues --   -0.62153  -0.61743  -0.60043  -0.57266  -0.54908
 Alpha  occ. eigenvalues --   -0.52956  -0.52866  -0.49481  -0.48309  -0.46121
 Alpha  occ. eigenvalues --   -0.43924  -0.43717  -0.34833
 Alpha virt. eigenvalues --    0.14128   0.15706   0.16472   0.16606   0.19599
 Alpha virt. eigenvalues --    0.20380   0.21234   0.22396   0.22471   0.23319
 Alpha virt. eigenvalues --    0.24410   0.26207   0.27030   0.27827   0.30812

 Mulliken atomic charges:
              1
     1  C   -0.179769
     2  C   -0.173211
     3  C   -0.173210
     4  C   -0.064961
     5  C   -0.064958
     6  N   -0.225224
     7  C   -0.174292
     8  H    0.083816
     9  H    0.097891
    10  H    0.084029
    11  H    0.094928
    12  H    0.094929
    13  H    0.084029
    14  H    0.087658
    15  H    0.055179
    16  H    0.055173
    17  H    0.087656
    18  H    0.054571
    19  H    0.087882
    20  H    0.087883
 Sum of Mulliken atomic charges =   0.00000

 Dipole moment (field-independent basis, Debye):
    X=             -0.0604    Y=              0.0000    Z=              0.4892  Tot=              0.4929
 Quadrupole moment (field-independent basis, Debye-Ang):
   XX=            -45.6600   YY=            -45.3420   ZZ=            -47.7889
   XY=              0.0000   XZ=              0.2636   YZ=              0.0000

 Normal termination of Gaussian 09 at Sat Jun  4 17:21:29 2016.
