 Gaussian 09, Revision A.01,
 Gaussian 09:  EM64L-G09RevA.01  8-May-2009

 -------------
 # mp2/cc-pVTZ
 -------------

 ---------------------
 N-Me-Acetamide-ts.hin
 ---------------------
 Symbolic Z-matrix:
 Charge =  0 Multiplicity = 1

                         Standard orientation:
 ---------------------------------------------------------------------
 Center     Atomic      Atomic             Coordinates (Angstroms)
 Number     Number       Type             X           Y           Z
 ---------------------------------------------------------------------
      1          6           0       -1.368045   -1.026970   -0.087865
      2          6           0       -0.524261    0.221301    0.088074
      3          7           0        0.752968    0.022366    0.566462
      4          6           0        1.853664   -0.188228   -0.340437
      5          8           0       -0.953723    1.319010   -0.174764
      6          1           0       -0.883072   -1.718533   -0.813937
      7          1           0       -1.483560   -1.550851    0.888188
      8          1           0       -2.383141   -0.774937   -0.471402
      9          1           0        0.885262    0.034773    1.579797
     10          1           0        1.529069   -0.149532   -1.405663
     11          1           0        2.621446    0.598822   -0.167004
     12          1           0        2.304852   -1.185008   -0.135729
 ---------------------------------------------------------------------

 SCF Done:  E(RHF) =  -247.054974811     A.U. after   14 cycles
 E2 =    -0.9480347181D+00 EUMP2 =    -0.24800300952889D+03

 The electronic state is 1-A.
 Alpha  occ. eigenvalues --  -20.53987 -15.54372 -11.34885 -11.27089 -11.23807
 Alpha  occ. eigenvalues --   -1.39409  -1.21227  -0.99862  -0.92561  -0.77241
 Alpha  occ. eigenvalues --   -0.68029  -0.64457  -0.64102  -0.58511  -0.57675
 Alpha  occ. eigenvalues --   -0.55988  -0.53907  -0.48818  -0.42949  -0.37113
 Alpha virt. eigenvalues --    0.12073   0.15126   0.16147   0.17812   0.20901
 Alpha virt. eigenvalues --    0.21570   0.22236   0.23493   0.28122   0.29896
 Alpha virt. eigenvalues --    0.34503   0.38059   0.38865   0.40365   0.42605

 Mulliken atomic charges:
              1
     1  C   -0.260458
     2  C    0.293852
     3  N   -0.289522
     4  C   -0.146227
     5  O   -0.337997
     6  H    0.092762
     7  H    0.087899
     8  H    0.111740
     9  H    0.174612
    10  H    0.095806
    11  H    0.097210
    12  H    0.080321
 Sum of Mulliken atomic charges =   0.00000

 Dipole moment (field-independent basis, Debye):
    X=              1.4852    Y=             -2.9063    Z=              0.8477  Tot=              3.3721
 Quadrupole moment (field-independent basis, Debye-Ang):
   XX=            -30.3310   YY=            -35.7721   ZZ=            -27.7926
   XY=              3.0843   XZ=             -0.2675   YZ=              0.7995

 Normal termination of Gaussian 09 at Sat Jun  4 21:51:26 2016.
