 Gaussian 09, Revision A.01,
 Gaussian 09:  EM64L-G09RevA.01  8-May-2009

 -------------
 # mp2/cc-pVTZ
 -------------

 --------------------
 N-Me-Acetamide-Z.hin
 --------------------
 Symbolic Z-matrix:
 Charge =  0 Multiplicity = 1

                         Standard orientation:
 ---------------------------------------------------------------------
 Center     Atomic      Atomic             Coordinates (Angstroms)
 Number     Number       Type             X           Y           Z
 ---------------------------------------------------------------------
      1          6           0       -1.818153   -0.544506    0.000042
      2          6           0       -0.479311    0.169660   -0.000123
      3          7           0        0.631736   -0.649121   -0.000140
      4          6           0        1.959166   -0.086115    0.000059
      5          8           0       -0.416880    1.376668    0.000034
      6          1           0       -2.662747    0.182028    0.000066
      7          1           0       -1.909562   -1.185357   -0.906356
      8          1           0       -1.909392   -1.185227    0.906546
      9          1           0        0.481565   -1.660496    0.000243
     10          1           0        2.698006   -0.918506   -0.003582
     11          1           0        2.121444    0.534982   -0.910355
     12          1           0        2.123363    0.528849    0.914277
 ---------------------------------------------------------------------

 SCF Done:  E(RHF) =  -247.094376247     A.U. after   13 cycles
 E2 =    -0.9503525389D+00 EUMP2 =    -0.24804472878576D+03

 The electronic state is 1-A.
 Alpha  occ. eigenvalues --  -20.51290 -15.58097 -11.34375 -11.26589 -11.24115
 Alpha  occ. eigenvalues --   -1.38086  -1.22173  -1.00755  -0.91957  -0.77707
 Alpha  occ. eigenvalues --   -0.68458  -0.64594  -0.62997  -0.57881  -0.57875
 Alpha  occ. eigenvalues --   -0.55123  -0.53580  -0.50121  -0.41811  -0.38934
 Alpha virt. eigenvalues --    0.12425   0.15641   0.17503   0.18018   0.21474
 Alpha virt. eigenvalues --    0.21568   0.22613   0.25379   0.28154   0.30216
 Alpha virt. eigenvalues --    0.37269   0.38249   0.38501   0.41154   0.44111

 Mulliken atomic charges:
              1
     1  C   -0.286412
     2  C    0.339617
     3  N   -0.258588
     4  C   -0.132903
     5  O   -0.427500
     6  H    0.125917
     7  H    0.094374
     8  H    0.094372
     9  H    0.181795
    10  H    0.081841
    11  H    0.093898
    12  H    0.093590
 Sum of Mulliken atomic charges =   0.00000

 Dipole moment (field-independent basis, Debye):
    X=              0.5004    Y=             -3.9755    Z=             -0.0001  Tot=              4.0069
 Quadrupole moment (field-independent basis, Debye-Ang):
   XX=            -27.1708   YY=            -33.6229   ZZ=            -31.1698
   XY=              1.0755   XZ=             -0.0020   YZ=             -0.0025

 Normal termination of Gaussian 09 at Sat Jun  4 21:49:13 2016.
