 Gaussian 09, Revision A.01,
 Gaussian 09:  EM64L-G09RevA.01  8-May-2009

 -------------
 # mp2/cc-pVTZ
 -------------

 -----------------------------
 N-Methylazetidine-without.hin
 -----------------------------
 Symbolic Z-matrix:
 Charge =  0 Multiplicity = 1

                         Standard orientation:
 ---------------------------------------------------------------------
 Center     Atomic      Atomic             Coordinates (Angstroms)
 Number     Number       Type             X           Y           Z
 ---------------------------------------------------------------------
      1          7           0       -0.424189   -0.000004   -0.413926
      2          6           0        1.550936    0.000001   -0.026232
      3          6           0        0.428035    1.062879    0.107690
      4          6           0        0.428039   -1.062876    0.107690
      5          1           0        2.284941    0.000002    0.813861
      6          1           0        2.040965    0.000000   -1.030459
      7          1           0        0.494834    1.929792   -0.589369
      8          1           0        0.204123   -1.330735    1.168324
      9          1           0        0.494834   -1.929787   -0.589369
     10          6           0       -1.788125    0.000000    0.054486
     11          1           0        0.204120    1.330727    1.168323
     12          1           0       -1.848662   -0.000003    1.167333
     13          1           0       -2.309568   -0.902893   -0.336487
     14          1           0       -2.309574    0.902898   -0.336482
 ---------------------------------------------------------------------

 SCF Done:  E(RHF) =  -211.171250719     A.U. after   12 cycles
 E2 =    -0.9036068729D+00 EUMP2 =    -0.21207485759200D+03

 The electronic state is 1-A.
 Alpha  occ. eigenvalues --  -15.54033 -11.24895 -11.24895 -11.24089 -11.22945
 Alpha  occ. eigenvalues --   -1.25765  -1.01497  -0.91256  -0.85843  -0.74867
 Alpha  occ. eigenvalues --   -0.66362  -0.64350  -0.59855  -0.56757  -0.55393
 Alpha  occ. eigenvalues --   -0.49655  -0.48219  -0.45505  -0.43913  -0.36188
 Alpha virt. eigenvalues --    0.14374   0.16033   0.17523   0.18069   0.21350
 Alpha virt. eigenvalues --    0.21766   0.22145   0.23401   0.24738   0.26961
 Alpha virt. eigenvalues --    0.30755   0.32166   0.32521   0.32757   0.40346

 Mulliken atomic charges:
              1
     1  N   -0.196641
     2  C   -0.175705
     3  C   -0.094653
     4  C   -0.094653
     5  H    0.079896
     6  H    0.103638
     7  H    0.089542
     8  H    0.072741
     9  H    0.089543
    10  C   -0.164329
    11  H    0.072743
    12  H    0.046884
    13  H    0.085499
    14  H    0.085497
 Sum of Mulliken atomic charges =   0.00000

 Dipole moment (field-independent basis, Debye):
    X=              0.1188    Y=              0.0000    Z=              0.7710  Tot=              0.7801
 Quadrupole moment (field-independent basis, Debye-Ang):
   XX=            -32.8469   YY=            -32.2068   ZZ=            -33.6909
   XY=              0.0000   XZ=             -0.5609   YZ=              0.0000

 Normal termination of Gaussian 09 at Sat Jun  4 17:58:00 2016.
