 Gaussian 09, Revision A.01,
 Gaussian 09:  EM64L-G09RevA.01  8-May-2009

 -------------
 # mp2/cc-pVTZ
 -------------

 ------------------------------
 N-Methylo piperidine ch-eq.hin
 ------------------------------
 Symbolic Z-matrix:
 Charge =  0 Multiplicity = 1

                         Standard orientation:
 ---------------------------------------------------------------------
 Center     Atomic      Atomic             Coordinates (Angstroms)
 Number     Number       Type             X           Y           Z
 ---------------------------------------------------------------------
      1          6           0        1.890374   -0.000001    0.276968
      2          6           0        1.161123    1.249220   -0.230152
      3          6           0        1.161120   -1.249222   -0.230168
      4          6           0       -0.322542    1.203080    0.165605
      5          6           0       -0.322536   -1.203076    0.165617
      6          7           0       -0.978849   -0.000002   -0.329989
      7          6           0       -2.393629    0.000000    0.013764
      8          1           0        1.903959   -0.000002    1.393043
      9          1           0        2.951859    0.000000   -0.069462
     10          1           0        1.246179    1.304593   -1.341959
     11          1           0        1.643000    2.167632    0.183816
     12          1           0        1.642994   -2.167637    0.183805
     13          1           0        1.246171   -1.304586   -1.341968
     14          1           0       -0.828266    2.105961   -0.254047
     15          1           0       -0.410273    1.259910    1.277272
     16          1           0       -0.410259   -1.259896    1.277279
     17          1           0       -0.828275   -2.105962   -0.254019
     18          1           0       -2.547771    0.000006    1.118035
     19          1           0       -2.900416    0.895070   -0.415844
     20          1           0       -2.900422   -0.895081   -0.415827
 ---------------------------------------------------------------------

 SCF Done:  E(RHF) =  -289.310331640     A.U. after   11 cycles
 E2 =    -0.1255153539D+01 EUMP2 =    -0.29056548517835D+03

 The electronic state is 1-A.
 Alpha  occ. eigenvalues --  -15.54230 -11.24709 -11.24708 -11.24498 -11.22142
 Alpha  occ. eigenvalues --  -11.22090 -11.22054  -1.22937  -1.06451  -1.00544
 Alpha  occ. eigenvalues --   -0.92581  -0.83970  -0.82421  -0.74616  -0.65136
 Alpha  occ. eigenvalues --   -0.62060  -0.61680  -0.60067  -0.57253  -0.54933
 Alpha  occ. eigenvalues --   -0.52825  -0.52768  -0.49462  -0.48272  -0.46095
 Alpha  occ. eigenvalues --   -0.43908  -0.43674  -0.35214
 Alpha virt. eigenvalues --    0.14134   0.15694   0.16451   0.16614   0.19568
 Alpha virt. eigenvalues --    0.20389   0.21229   0.22436   0.22489   0.23319
 Alpha virt. eigenvalues --    0.24358   0.26155   0.27061   0.27867   0.30789

 Mulliken atomic charges:
              1
     1  C   -0.180412
     2  C   -0.173335
     3  C   -0.173335
     4  C   -0.064827
     5  C   -0.064828
     6  N   -0.228097
     7  C   -0.175097
     8  H    0.083917
     9  H    0.097967
    10  H    0.084334
    11  H    0.095113
    12  H    0.095110
    13  H    0.084340
    14  H    0.088136
    15  H    0.055499
    16  H    0.055504
    17  H    0.088133
    18  H    0.054952
    19  H    0.088466
    20  H    0.088464
 Sum of Mulliken atomic charges =   0.00000

 Dipole moment (field-independent basis, Debye):
    X=              0.0687    Y=              0.0000    Z=              0.5602  Tot=              0.5644
 Quadrupole moment (field-independent basis, Debye-Ang):
   XX=            -45.6094   YY=            -45.2872   ZZ=            -47.8905
   XY=              0.0000   XZ=             -0.3746   YZ=              0.0000

 Normal termination of Gaussian 09 at Sat Jun  4 17:37:32 2016.
