 Gaussian 09, Revision A.01,
 Gaussian 09:  EM64L-G09RevA.01  8-May-2009

 -------------
 # mp2/cc-pVTZ
 -------------

 ------------------------------
 N-Methylo piperidine ch-NI.hin
 ------------------------------
 Symbolic Z-matrix:
 Charge =  0 Multiplicity = 1

                         Standard orientation:
 ---------------------------------------------------------------------
 Center     Atomic      Atomic             Coordinates (Angstroms)
 Number     Number       Type             X           Y           Z
 ---------------------------------------------------------------------
      1          6           0       -1.895623   -0.000062   -0.145671
      2          6           0       -1.119496    1.245772    0.294491
      3          6           0       -1.119403   -1.245806    0.294517
      4          6           0        0.292564    1.250620   -0.304390
      5          6           0        0.292629   -1.250561   -0.304429
      6          7           0        0.985961    0.000045   -0.116476
      7          6           0        2.380351    0.000005    0.243739
      8          1           0       -2.022288   -0.000071   -1.254493
      9          1           0       -2.915547   -0.000084    0.308963
     10          1           0       -1.048458    1.263013    1.408521
     11          1           0       -1.668370    2.168540   -0.012513
     12          1           0       -1.668204   -2.168627   -0.012464
     13          1           0       -1.048334   -1.263027    1.408546
     14          1           0        0.874373    2.090300    0.143900
     15          1           0        0.233710    1.436787   -1.402344
     16          1           0        0.233744   -1.436685   -1.402381
     17          1           0        0.874534   -2.090214    0.143808
     18          1           0        2.897044   -0.895871   -0.169451
     19          1           0        2.896761    0.896845   -0.167707
     20          1           0        2.473177   -0.001026    1.353410
 ---------------------------------------------------------------------

 SCF Done:  E(RHF) =  -289.294245195     A.U. after   12 cycles
 E2 =    -0.1252159445D+01 EUMP2 =    -0.29054640463994D+03

 The electronic state is 1-A.
 Alpha  occ. eigenvalues --  -15.51885 -11.24743 -11.24741 -11.24551 -11.22056
 Alpha  occ. eigenvalues --  -11.21893 -11.21881  -1.21845  -1.06234  -1.00753
 Alpha  occ. eigenvalues --   -0.93027  -0.84230  -0.82231  -0.73634  -0.64908
 Alpha  occ. eigenvalues --   -0.61868  -0.61485  -0.59658  -0.57516  -0.55215
 Alpha  occ. eigenvalues --   -0.53287  -0.53214  -0.49849  -0.47743  -0.46481
 Alpha  occ. eigenvalues --   -0.44280  -0.44120  -0.30838
 Alpha virt. eigenvalues --    0.13646   0.15966   0.16419   0.16655   0.19889
 Alpha virt. eigenvalues --    0.20401   0.20581   0.21729   0.22368   0.23697
 Alpha virt. eigenvalues --    0.23793   0.25052   0.26521   0.27564   0.31604

 Mulliken atomic charges:
              1
     1  C   -0.173206
     2  C   -0.170026
     3  C   -0.170029
     4  C   -0.068103
     5  C   -0.068082
     6  N   -0.222156
     7  C   -0.177128
     8  H    0.081636
     9  H    0.098414
    10  H    0.077624
    11  H    0.093046
    12  H    0.093043
    13  H    0.077631
    14  H    0.085431
    15  H    0.063016
    16  H    0.063033
    17  H    0.085433
    18  H    0.077678
    19  H    0.077714
    20  H    0.075030
 Sum of Mulliken atomic charges =   0.00000

 Dipole moment (field-independent basis, Debye):
    X=             -0.0119    Y=              0.0002    Z=              0.1511  Tot=              0.1516
 Quadrupole moment (field-independent basis, Debye-Ang):
   XX=            -46.1579   YY=            -45.6229   ZZ=            -47.1549
   XY=              0.0013   XZ=              0.0664   YZ=              0.0003

 Normal termination of Gaussian 09 at Sat Jun  4 03:07:49 2016.
