 Gaussian 09, Revision A.01,
 Gaussian 09:  EM64L-G09RevA.01  8-May-2009

 -------------
 # mp2/cc-pVTZ
 -------------

 ------------------------
 N-Methylazetidine-lp.hin
 ------------------------
 Symbolic Z-matrix:
 Charge =  0 Multiplicity = 1

                         Standard orientation:
 ---------------------------------------------------------------------
 Center     Atomic      Atomic             Coordinates (Angstroms)
 Number     Number       Type             X           Y           Z
 ---------------------------------------------------------------------
      1          7           0        0.431419    0.000002   -0.422291
      2          6           0       -1.558136   -0.000003   -0.011139
      3          6           0       -0.429007   -1.061428    0.096610
      4          6           0       -0.429011    1.061430    0.096613
      5          1           0       -2.272679    0.000002    0.845526
      6          1           0       -2.068725   -0.000003   -1.004868
      7          1           0       -0.513105   -1.929288   -0.598846
      8          1           0       -0.198668    1.338838    1.153453
      9          1           0       -0.513111    1.929289   -0.598845
     10          6           0        1.792546    0.000000    0.061728
     11          1           0       -0.198669   -1.338839    1.153462
     12          1           0        1.838037   -0.000003    1.175386
     13          1           0        2.324316    0.903512   -0.316053
     14          1           0        2.324319   -0.903507   -0.316050
 ---------------------------------------------------------------------

 SCF Done:  E(RHF) =  -211.173087529     A.U. after   12 cycles
 E2 =    -0.9033219457D+00 EUMP2 =    -0.21207640947435D+03

 The electronic state is 1-A.
 Alpha  occ. eigenvalues --  -15.54102 -11.24968 -11.24968 -11.24184 -11.22927
 Alpha  occ. eigenvalues --   -1.25504  -1.01440  -0.91134  -0.85981  -0.74787
 Alpha  occ. eigenvalues --   -0.66300  -0.64332  -0.59804  -0.56691  -0.55291
 Alpha  occ. eigenvalues --   -0.49676  -0.48307  -0.45299  -0.44215  -0.36134
 Alpha virt. eigenvalues --    0.14361   0.16011   0.17550   0.18033   0.21362
 Alpha virt. eigenvalues --    0.21802   0.22183   0.23293   0.24672   0.26981
 Alpha virt. eigenvalues --    0.30626   0.32178   0.32717   0.32912   0.40459

 Mulliken atomic charges:
              1
     1  N   -0.200838
     2  C   -0.178799
     3  C   -0.090456
     4  C   -0.090459
     5  H    0.082526
     6  H    0.102790
     7  H    0.088417
     8  H    0.071785
     9  H    0.088416
    10  C   -0.164060
    11  H    0.071780
    12  H    0.046638
    13  H    0.086128
    14  H    0.086130
 Sum of Mulliken atomic charges =   0.00000

 Dipole moment (field-independent basis, Debye):
    X=             -0.1406    Y=              0.0000    Z=              0.8015  Tot=              0.8137
 Quadrupole moment (field-independent basis, Debye-Ang):
   XX=            -32.7100   YY=            -32.2088   ZZ=            -33.7777
   XY=              0.0000   XZ=              0.5818   YZ=              0.0000

 Normal termination of Gaussian 09 at Sat Jun  4 18:06:45 2016.
