 Gaussian 09, Revision A.01,
 Gaussian 09:  EM64L-G09RevA.01  8-May-2009

 -------------
 # mp2/cc-pVTZ
 -------------

 --------------------------------
 N-Methylo piperidine-sofa-ax.hin
 --------------------------------
 Symbolic Z-matrix:
 Charge =  0 Multiplicity = 1

                         Standard orientation:
 ---------------------------------------------------------------------
 Center     Atomic      Atomic             Coordinates (Angstroms)
 Number     Number       Type             X           Y           Z
 ---------------------------------------------------------------------
      1          6           0       -0.932045   -1.315956    0.069056
      2          6           0       -1.619705    0.000002    0.473091
      3          6           0       -0.932030    1.315968    0.069055
      4          6           0        0.377783    1.182358   -0.718429
      5          7           0        1.157340   -0.000003   -0.397423
      6          6           0        0.377772   -1.182362   -0.718433
      7          1           0       -1.638492   -1.976750   -0.489595
      8          1           0       -0.700959   -1.878406    1.005882
      9          1           0       -1.822571    0.000001    1.571773
     10          1           0       -2.636060    0.000011    0.010479
     11          1           0       -0.700937    1.878419    1.005892
     12          1           0       -1.638462    1.976766   -0.489587
     13          1           0        1.006240    2.095949   -0.584526
     14          1           0        0.136260    1.160830   -1.808560
     15          6           0        1.631250   -0.000009    0.976687
     16          1           0        1.006217   -2.095949   -0.584536
     17          1           0        0.136252   -1.160812   -1.808564
     18          1           0        2.266068    0.896568    1.164787
     19          1           0        0.800856   -0.000009    1.717576
     20          1           0        2.266058   -0.896601    1.164776
 ---------------------------------------------------------------------

 SCF Done:  E(RHF) =  -289.285649135     A.U. after   12 cycles
 E2 =    -0.1256895120D+01 EUMP2 =    -0.29054254425470D+03

 The electronic state is 1-A.
 Alpha  occ. eigenvalues --  -15.53877 -11.24511 -11.24510 -11.24462 -11.22360
 Alpha  occ. eigenvalues --  -11.21935 -11.21930  -1.23088  -1.05192  -1.00731
 Alpha  occ. eigenvalues --   -0.93998  -0.84150  -0.83457  -0.72063  -0.65477
 Alpha  occ. eigenvalues --   -0.63650  -0.63072  -0.58608  -0.55638  -0.55318
 Alpha  occ. eigenvalues --   -0.52157  -0.51932  -0.50435  -0.48286  -0.47671
 Alpha  occ. eigenvalues --   -0.43983  -0.42652  -0.34093
 Alpha virt. eigenvalues --    0.12726   0.15741   0.16861   0.17338   0.19356
 Alpha virt. eigenvalues --    0.19935   0.20049   0.20841   0.22199   0.24547
 Alpha virt. eigenvalues --    0.26400   0.27463   0.27797   0.28866   0.32576

 Mulliken atomic charges:
              1
     1  C   -0.198635
     2  C   -0.192539
     3  C   -0.198637
     4  C   -0.086607
     5  N   -0.220161
     6  C   -0.086611
     7  H    0.101703
     8  H    0.083859
     9  H    0.099774
    10  H    0.094921
    11  H    0.083853
    12  H    0.101710
    13  H    0.095389
    14  H    0.082709
    15  C   -0.180428
    16  H    0.095395
    17  H    0.082709
    18  H    0.093925
    19  H    0.053749
    20  H    0.093923
 Sum of Mulliken atomic charges =   0.00000

 Dipole moment (field-independent basis, Debye):
    X=             -0.7628    Y=              0.0000    Z=              0.5018  Tot=              0.9131
 Quadrupole moment (field-independent basis, Debye-Ang):
   XX=            -48.2739   YY=            -45.4490   ZZ=            -46.3553
   XY=              0.0000   XZ=              2.5483   YZ=              0.0000

 Normal termination of Gaussian 09 at Sat Jun  4 04:08:50 2016.
