 Gaussian 09, Revision A.01,
 Gaussian 09:  EM64L-G09RevA.01  8-May-2009

 -------------
 # mp2/cc-pVTZ
 -------------

 --------------------------
 N-methylpyrrolidine-lp.hin
 --------------------------
 Symbolic Z-matrix:
 Charge =  0 Multiplicity = 1

                         Standard orientation:
 ---------------------------------------------------------------------
 Center     Atomic      Atomic             Coordinates (Angstroms)
 Number     Number       Type             X           Y           Z
 ---------------------------------------------------------------------
      1          6           0       -1.493389    0.770263   -0.051003
      2          6           0       -1.493253   -0.770368   -0.051723
      3          6           0       -0.016445   -1.145576    0.153546
      4          6           0       -0.016428    1.145695    0.153006
      5          7           0        0.711578   -0.000071   -0.359520
      6          6           0        2.118896   -0.000011   -0.012441
      7          1           0       -1.856700   -1.156541   -1.034300
      8          1           0       -2.141372   -1.195219    0.751488
      9          1           0        0.267728   -2.082126   -0.383060
     10          1           0        0.188581   -1.280908    1.243242
     11          1           0        0.189210    1.281962    1.242471
     12          1           0        0.267359    2.081862   -0.384482
     13          1           0        2.271534    0.000173    1.091804
     14          1           0        2.617575   -0.900640   -0.439691
     15          1           0        2.617591    0.900449   -0.440014
     16          1           0       -2.140541    1.194090    0.753533
     17          1           0       -1.858305    1.157377   -1.032664
 ---------------------------------------------------------------------

 SCF Done:  E(RHF) =  -250.257144802     A.U. after   11 cycles
 E2 =    -0.1077952383D+01 EUMP2 =    -0.25133509718534D+03

 The electronic state is 1-A.
 Alpha  occ. eigenvalues --  -15.54007 -11.24555 -11.24553 -11.24544 -11.22236
 Alpha  occ. eigenvalues --  -11.22178  -1.24066  -1.04446  -0.96918  -0.90477
 Alpha  occ. eigenvalues --   -0.77880  -0.77708  -0.66314  -0.65019  -0.59826
 Alpha  occ. eigenvalues --   -0.58834  -0.55502  -0.52379  -0.49540  -0.49290
 Alpha  occ. eigenvalues --   -0.47219  -0.46546  -0.44974  -0.35279
 Alpha virt. eigenvalues --    0.13846   0.15938   0.17201   0.17512   0.20420
 Alpha virt. eigenvalues --    0.20818   0.21333   0.22055   0.24492   0.25724
 Alpha virt. eigenvalues --    0.27344   0.27717   0.30941   0.32101   0.33468

 Mulliken atomic charges:
              1
     1  C   -0.179475
     2  C   -0.179461
     3  C   -0.062812
     4  C   -0.062862
     5  N   -0.218911
     6  C   -0.171610
     7  H    0.091234
     8  H    0.092433
     9  H    0.087123
    10  H    0.050526
    11  H    0.050554
    12  H    0.087094
    13  H    0.053332
    14  H    0.089570
    15  H    0.089573
    16  H    0.092410
    17  H    0.091281
 Sum of Mulliken atomic charges =   0.00000

 Dipole moment (field-independent basis, Debye):
    X=             -0.0858    Y=              0.0000    Z=              0.6098  Tot=              0.6158
 Quadrupole moment (field-independent basis, Debye-Ang):
   XX=            -38.9317   YY=            -38.7917   ZZ=            -40.7782
   XY=             -0.0001   XZ=              0.0337   YZ=             -0.0011

 Normal termination of Gaussian 09 at Sat Jun  4 03:37:58 2016.
