 Gaussian 09, Revision E.01,
 Gaussian 09:  ES64L-G09RevE.01 30-Nov-2015

 -----------------
 # opt mp2/cc-pVTZ
 -----------------

 -------------------------
 N-me-piperidine ch-eq-nlp
 -------------------------
 Symbolic Z-matrix:
 Charge =  0 Multiplicity = 1

 SCF Done:  E(RHF) =  -289.310732358     A.U. after   11 cycles
 E2 =    -0.1254673964D+01 EUMP2 =    -0.29056540632244D+03
 SCF Done:  E(RHF) =  -289.317702354     A.U. after   10 cycles
 E2 =    -0.1252932438D+01 EUMP2 =    -0.29057063479160D+03
 SCF Done:  E(RHF) =  -289.317692077     A.U. after    9 cycles
 E2 =    -0.1253089804D+01 EUMP2 =    -0.29057078188085D+03
 SCF Done:  E(RHF) =  -289.317441853     A.U. after    8 cycles
 E2 =    -0.1253362911D+01 EUMP2 =    -0.29057080476454D+03
 SCF Done:  E(RHF) =  -289.317444511     A.U. after    6 cycles
 E2 =    -0.1253361338D+01 EUMP2 =    -0.29057080584906D+03
 Optimization completed.
    -- Stationary point found.

                         Standard orientation:
 ---------------------------------------------------------------------
 Center     Atomic      Atomic             Coordinates (Angstroms)
 Number     Number       Type             X           Y           Z
 ---------------------------------------------------------------------
      1          6           0       -1.876823    0.000011    0.255867
      2          6           0       -1.146864   -1.247172   -0.228540
      3          6           0       -1.146849    1.247176   -0.228543
      4          6           0        0.315965   -1.194880    0.182600
      5          6           0        0.315978    1.194878    0.182600
      6          7           0        0.960969   -0.000004   -0.344021
      7          6           0        2.369936   -0.000005    0.001344
      8          1           0       -1.900275    0.000004    1.349325
      9          1           0       -2.912019    0.000011   -0.086465
     10          1           0       -1.200357   -1.305270   -1.317183
     11          1           0       -1.608360   -2.148948    0.176026
     12          1           0       -1.608331    2.148958    0.176022
     13          1           0       -1.200337    1.305270   -1.317186
     14          1           0        0.851746   -2.065532   -0.198146
     15          1           0        0.388151   -1.221779    1.286163
     16          1           0        0.388169    1.221773    1.286166
     17          1           0        0.851768    2.065524   -0.198143
     18          1           0        2.533657   -0.000014    1.091039
     19          1           0        2.850669   -0.883631   -0.415727
     20          1           0        2.850674    0.883626   -0.415712
 ---------------------------------------------------------------------

 The electronic state is 1-A.
 Alpha  occ. eigenvalues --  -15.53893 -11.23876 -11.23874 -11.23522 -11.21266
 Alpha  occ. eigenvalues --  -11.21093 -11.21080  -1.23296  -1.07061  -1.01252
 Alpha  occ. eigenvalues --   -0.93093  -0.84481  -0.82990  -0.75433  -0.65823
 Alpha  occ. eigenvalues --   -0.62358  -0.62256  -0.60805  -0.57674  -0.55118
 Alpha  occ. eigenvalues --   -0.53352  -0.52984  -0.49904  -0.48546  -0.46332
 Alpha  occ. eigenvalues --   -0.44065  -0.43911  -0.35467
 Alpha virt. eigenvalues --    0.14389   0.15885   0.16533   0.16735   0.19725
 Alpha virt. eigenvalues --    0.20502   0.21388   0.22559   0.22723   0.23533
 Alpha virt. eigenvalues --    0.24724   0.26465   0.27444   0.28128   0.30844

 Mulliken charges:
               1
     1  C   -0.193786
     2  C   -0.185554
     3  C   -0.185551
     4  C   -0.077815
     5  C   -0.077816
     6  N   -0.228379
     7  C   -0.188012
     8  H    0.088929
     9  H    0.108069
    10  H    0.090488
    11  H    0.103314
    12  H    0.103312
    13  H    0.090488
    14  H    0.096072
    15  H    0.058283
    16  H    0.058281
    17  H    0.096072
    18  H    0.054928
    19  H    0.094338
    20  H    0.094338
 Sum of Mulliken charges =  -0.00000

 Dipole moment (field-independent basis, Debye):
    X=             -0.0568    Y=             -0.0000    Z=              0.6164  Tot=              0.6190
 Quadrupole moment (field-independent basis, Debye-Ang):
   XX=            -45.3434   YY=            -44.9186   ZZ=            -47.6772
   XY=              0.0001   XZ=              0.3754   YZ=             -0.0000

 Normal termination of Gaussian 09 at Tue Jul 17 15:41:14 2018.
