 Gaussian 09, Revision A.01,
 Gaussian 09:  EM64L-G09RevA.01  8-May-2009

 -------------
 # mp2/cc-pVTZ
 -------------

 --------------------
 N-Me-Acetamide-E.hin
 --------------------
 Symbolic Z-matrix:
 Charge =  0 Multiplicity = 1

                         Standard orientation:
 ---------------------------------------------------------------------
 Center     Atomic      Atomic             Coordinates (Angstroms)
 Number     Number       Type             X           Y           Z
 ---------------------------------------------------------------------
      1          6           0        0.807076    1.326644   -0.000003
      2          6           0        0.597036   -0.177831    0.000017
      3          7           0       -0.687434   -0.682761   -0.000020
      4          6           0       -1.869971    0.142847    0.000010
      5          8           0        1.541258   -0.930902    0.000000
      6          1           0        1.893241    1.574219    0.000230
      7          1           0        0.357563    1.786043   -0.909296
      8          1           0        0.357150    1.786137    0.909036
      9          1           0       -0.750786   -1.703761    0.000004
     10          1           0       -1.908968    0.777669    0.914006
     11          1           0       -1.908613    0.778317   -0.913566
     12          1           0       -2.762460   -0.522041   -0.000419
 ---------------------------------------------------------------------

 SCF Done:  E(RHF) =  -247.089966554     A.U. after   13 cycles
 E2 =    -0.9505616851D+00 EUMP2 =    -0.24804052823884D+03

 The electronic state is 1-A.
 Alpha  occ. eigenvalues --  -20.50681 -15.57799 -11.34364 -11.27896 -11.24367
 Alpha  occ. eigenvalues --   -1.37916  -1.22151  -0.99691  -0.94283  -0.77539
 Alpha  occ. eigenvalues --   -0.66890  -0.66188  -0.63837  -0.57842  -0.57526
 Alpha  occ. eigenvalues --   -0.55305  -0.54884  -0.51302  -0.41472  -0.38385
 Alpha virt. eigenvalues --    0.12514   0.15594   0.17524   0.18387   0.19166
 Alpha virt. eigenvalues --    0.21107   0.23671   0.27233   0.28403   0.30415
 Alpha virt. eigenvalues --    0.35286   0.38296   0.38680   0.41060   0.42643

 Mulliken atomic charges:
              1
     1  C   -0.295255
     2  C    0.315656
     3  N   -0.232384
     4  C   -0.151713
     5  O   -0.423531
     6  H    0.135689
     7  H    0.096562
     8  H    0.096543
     9  H    0.190299
    10  H    0.081333
    11  H    0.081321
    12  H    0.105479
 Sum of Mulliken atomic charges =   0.00000

 Dipole moment (field-independent basis, Debye):
    X=             -3.6040    Y=              1.9133    Z=              0.0000  Tot=              4.0804
 Quadrupole moment (field-independent basis, Debye-Ang):
   XX=            -33.8159   YY=            -29.8969   ZZ=            -31.1510
   XY=              5.4950   XZ=              0.0002   YZ=             -0.0002

 Normal termination of Gaussian 09 at Sat Jun  4 21:53:37 2016.
