 Gaussian 09, Revision A.01,
 Gaussian 09:  EM64L-G09RevA.01  8-May-2009

 -----------------------
 # opt b3lyp/6-31+g(d,p)
 -----------------------

 ------------------
 3b-aminotropane-3a
 ------------------
 Symbolic Z-matrix:
 Charge =  0 Multiplicity = 1

 SCF Done:  E(RB3LYP) =  -424.988134187     A.U. after   22 cycles
 SCF Done:  E(RB3LYP) =  -425.001364555     A.U. after   19 cycles
 SCF Done:  E(RB3LYP) =  -425.004367128     A.U. after   20 cycles
 SCF Done:  E(RB3LYP) =  -425.004619818     A.U. after   22 cycles
 SCF Done:  E(RB3LYP) =  -425.004660217     A.U. after   23 cycles
 SCF Done:  E(RB3LYP) =  -425.004669114     A.U. after   21 cycles
 SCF Done:  E(RB3LYP) =  -425.004671240     A.U. after   22 cycles
 SCF Done:  E(RB3LYP) =  -425.004671469     A.U. after   25 cycles
 Optimization completed.
    -- Stationary point found.

                         Standard orientation:
 ---------------------------------------------------------------------
 Center     Atomic      Atomic             Coordinates (Angstroms)
 Number     Number       Type             X           Y           Z
 ---------------------------------------------------------------------
      1          7           0        1.058016   -0.000097   -0.857564
      2          6           0        0.603353    1.180366   -0.003020
      3          6           0        0.603364   -1.180364   -0.002766
      4          6           0       -0.910588    1.304118   -0.155800
      5          6           0       -0.910578   -1.304156   -0.155529
      6          6           0       -1.643725    0.000018    0.215778
      7          6           0        2.516655   -0.000138   -1.213392
      8          7           0       -3.026867   -0.000043   -0.365641
      9          6           0        1.066243   -0.778446    1.409126
     10          6           0        1.066245    0.778774    1.408954
     11          1           0        1.094488    2.081417   -0.388583
     12          1           0        1.094511   -2.081495   -0.388128
     13          1           0       -1.280229    2.115498    0.498620
     14          1           0       -1.142743    1.597003   -1.182057
     15          1           0       -1.142728   -1.597256   -1.181726
     16          1           0       -1.280213   -2.115402    0.499058
     17          1           0       -1.808715    0.000133    1.296392
     18          1           0        3.119275   -0.000101   -0.306034
     19          1           0        2.716284   -0.894420   -1.809090
     20          1           0        2.716314    0.894069   -1.809190
     21          1           0       -3.557012   -0.843982   -0.031347
     22          1           0       -3.557010    0.843971   -0.031533
     23          1           0        2.066972   -1.171231    1.620109
     24          1           0        0.388817   -1.198607    2.159528
     25          1           0        2.066979    1.171606    1.619827
     26          1           0        0.388832    1.199106    2.159274
     27          1           0        0.519904   -0.000199   -1.762134
     28          1           0       -2.967578   -0.000160   -1.420658
 ---------------------------------------------------------------------

 The electronic state is 1-A.
 Alpha  occ. eigenvalues --  -14.47372 -14.44247 -10.28011 -10.28010 -10.26950
 Alpha  occ. eigenvalues --  -10.26918 -10.23050 -10.23031 -10.22194 -10.22193
 Alpha  occ. eigenvalues --   -1.04101  -0.99081  -0.85995  -0.82180  -0.80394
 Alpha  occ. eigenvalues --   -0.75229  -0.69930  -0.67171  -0.63338  -0.62877
 Alpha  occ. eigenvalues --   -0.58313  -0.56551  -0.55850  -0.53994  -0.52119
 Alpha  occ. eigenvalues --   -0.49616  -0.48276  -0.46539  -0.46115  -0.45595
 Alpha  occ. eigenvalues --   -0.44944  -0.43071  -0.42910  -0.40456  -0.39248
 Alpha  occ. eigenvalues --   -0.38814  -0.36597  -0.36554  -0.35672  -0.06540
 Alpha virt. eigenvalues --   -0.03738  -0.01687  -0.01097  -0.00678   0.00606
 Alpha virt. eigenvalues --    0.00999   0.01265   0.01412   0.02585   0.04012
 Alpha virt. eigenvalues --    0.04295   0.04720   0.05784   0.05918   0.06502

 Mulliken atomic charges:
              1
     1  N   -0.257506
     2  C    1.103148
     3  C    1.103189
     4  C    1.317382
     5  C    1.317420
     6  C   -6.968720
     7  C   -1.006837
     8  N    2.359946
     9  C   -1.261829
    10  C   -1.261783
    11  H    0.156277
    12  H    0.156278
    13  H    0.173066
    14  H    0.199369
    15  H    0.199370
    16  H    0.173065
    17  H    0.195458
    18  H    0.181386
    19  H    0.188230
    20  H    0.188227
    21  H    0.243604
    22  H    0.243605
    23  H    0.159327
    24  H    0.174154
    25  H    0.159327
    26  H    0.174154
    27  H    0.353456
    28  H    0.237236
 Sum of Mulliken atomic charges =   0.00000

 Dipole moment (field-independent basis, Debye):
    X=              6.7029    Y=              0.0002    Z=              1.5010  Tot=              6.8689
 Quadrupole moment (field-independent basis, Debye-Ang):
   XX=            -83.5427   YY=            -80.9580   ZZ=            -87.2882
   XY=             -0.0001   XZ=             -0.2886   YZ=             -0.0007

 Normal termination of Gaussian 09 at Mon Aug 29 00:00:30 2016.
