 Gaussian 09, Revision A.01,
 Gaussian 09:  EM64L-G09RevA.01  8-May-2009

 -------------
 # mp2/cc-pVTZ
 -------------

 ---------------------------
 2-(1-Ad)-N-Meax-pip-ecl.hin
 ---------------------------
 Symbolic Z-matrix:
 Charge =  0 Multiplicity = 1

                         Standard orientation:
 ---------------------------------------------------------------------
 Center     Atomic      Atomic             Coordinates (Angstroms)
 Number     Number       Type             X           Y           Z
 ---------------------------------------------------------------------
      1          6           0        2.373990    1.436221   -0.012352
      2          6           0        2.992308    0.767634    1.222604
      3          6           0        2.530544   -0.695267    1.261215
      4          6           0        0.838639    1.378840    0.075569
      5          6           0        0.993390   -0.742451    1.313657
      6          6           0        0.306445   -0.074936    0.074878
      7          6           0        2.835014    0.713261   -1.288446
      8          6           0        0.870401   -0.867113   -1.126539
      9          6           0        2.402598   -0.759912   -1.225315
     10          6           0        3.030169   -1.427500    0.007546
     11          6           0       -1.244471   -0.264896    0.293726
     12          6           0       -1.995037   -1.234039   -0.645577
     13          6           0       -3.404267   -1.510069   -0.088180
     14          6           0       -4.181369   -0.217471    0.191047
     15          7           0       -1.983493    1.005162    0.297742
     16          6           0       -3.302738    0.827301    0.902842
     17          1           0        2.707313    2.503638   -0.051697
     18          1           0        2.675349    1.300060    2.150620
     19          1           0        4.105885    0.824363    1.180598
     20          1           0        2.954750   -1.190656    2.170130
     21          1           0        0.471996    1.960862   -0.794553
     22          1           0        0.496116    1.915541    0.991231
     23          1           0        0.664232   -0.238633    2.253904
     24          1           0        0.680681   -1.810885    1.397969
     25          1           0        3.944192    0.783217   -1.388035
     26          1           0        2.398881    1.202999   -2.191196
     27          1           0        0.419058   -0.459387   -2.060836
     28          1           0        0.607497   -1.947939   -1.076729
     29          1           0        2.754047   -1.287663   -2.146965
     30          1           0        4.143732   -1.387544   -0.050561
     31          1           0        2.748293   -2.506280    0.051692
     32          1           0       -1.359372   -0.693592    1.316521
     33          1           0       -1.475942   -2.219832   -0.673921
     34          1           0       -2.041515   -0.870468   -1.697216
     35          1           0       -3.308410   -2.076332    0.869597
     36          1           0       -3.978759   -2.163814   -0.787896
     37          1           0       -5.080175   -0.442729    0.814452
     38          1           0       -4.586680    0.184864   -0.765861
     39          1           0       -3.835086    1.808120    0.942402
     40          1           0       -3.172523    0.522986    1.969226
     41          6           0       -2.131732    1.634931   -1.013874
     42          1           0       -2.311089    2.727502   -0.884833
     43          1           0       -1.244590    1.504912   -1.666971
     44          1           0       -2.976728    1.233353   -1.612067
 ---------------------------------------------------------------------

 SCF Done:  E(RHF) =  -676.247094057     A.U. after   12 cycles
 E2 =    -0.2962714115D+01 EUMP2 =    -0.67920980817171D+03

 The electronic state is 1-A.
 Alpha  occ. eigenvalues --  -15.53568 -11.25064 -11.24540 -11.23992 -11.23087
 Alpha  occ. eigenvalues --  -11.22223 -11.21955 -11.21778 -11.21736 -11.21719
 Alpha  occ. eigenvalues --  -11.21675 -11.21467 -11.21340 -11.21333 -11.21305
 Alpha  occ. eigenvalues --  -11.21108 -11.20957  -1.22760  -1.15730  -1.05720
 Alpha  occ. eigenvalues --   -1.04905  -1.02999  -1.02742  -0.98514  -0.93371
 Alpha  occ. eigenvalues --   -0.89981  -0.89509  -0.84235  -0.83063  -0.78561
 Alpha  occ. eigenvalues --   -0.78294  -0.76884  -0.72981  -0.69380  -0.64622
 Alpha  occ. eigenvalues --   -0.63484  -0.62050  -0.61002  -0.60408  -0.60222
 Alpha  occ. eigenvalues --   -0.59756  -0.57896  -0.56375  -0.55729  -0.55181
 Alpha  occ. eigenvalues --   -0.54789  -0.53846  -0.53263  -0.53028  -0.51971
 Alpha  occ. eigenvalues --   -0.50604  -0.49218  -0.48694  -0.48248  -0.45941
 Alpha  occ. eigenvalues --   -0.45264  -0.45103  -0.44981  -0.44826  -0.43982
 Alpha  occ. eigenvalues --   -0.43609  -0.40152  -0.39619  -0.38816  -0.33292
 Alpha virt. eigenvalues --    0.12557   0.14215   0.14939   0.15583   0.16688
 Alpha virt. eigenvalues --    0.17032   0.17271   0.18183   0.18310   0.18895
 Alpha virt. eigenvalues --    0.20339   0.20730   0.21227   0.21330   0.21832

 Mulliken atomic charges:
              1
     1  C   -0.082052
     2  C   -0.213287
     3  C   -0.080845
     4  C   -0.204890
     5  C   -0.217024
     6  C   -0.011765
     7  C   -0.213791
     8  C   -0.218535
     9  C   -0.079702
    10  C   -0.214212
    11  C    0.081377
    12  C   -0.220365
    13  C   -0.188074
    14  C   -0.194674
    15  N   -0.234773
    16  C   -0.098646
    17  H    0.099284
    18  H    0.097529
    19  H    0.094378
    20  H    0.098018
    21  H    0.108261
    22  H    0.111117
    23  H    0.097312
    24  H    0.094848
    25  H    0.097474
    26  H    0.093828
    27  H    0.098927
    28  H    0.109899
    29  H    0.099295
    30  H    0.096017
    31  H    0.096087
    32  H    0.095406
    33  H    0.102118
    34  H    0.105820
    35  H    0.082409
    36  H    0.100295
    37  H    0.100460
    38  H    0.085206
    39  H    0.091546
    40  H    0.082029
    41  C   -0.240317
    42  H    0.108473
    43  H    0.102859
    44  H    0.082679
 Sum of Mulliken atomic charges =   0.00000

 Dipole moment (field-independent basis, Debye):
    X=             -0.4783    Y=             -0.5026    Z=             -0.4316  Tot=              0.8171
 Quadrupole moment (field-independent basis, Debye-Ang):
   XX=           -108.1762   YY=           -110.1969   ZZ=           -108.9809
   XY=              0.2725   XZ=              0.3489   YZ=             -1.4088

 Normal termination of Gaussian 09 at Thu Jun 23 21:52:38 2016.
