 Gaussian 09, Revision A.01,
 Gaussian 09:  EM64L-G09RevA.01  8-May-2009

 -------------
 # mp2/cc-pVTZ
 -------------

 ---------------------------
 2-(1-Ad)-N-Me-pip-trans.hin
 ---------------------------
 Symbolic Z-matrix:
 Charge =  0 Multiplicity = 1

                         Standard orientation:
 ---------------------------------------------------------------------
 Center     Atomic      Atomic             Coordinates (Angstroms)
 Number     Number       Type             X           Y           Z
 ---------------------------------------------------------------------
      1          6           0       -2.506628    0.955384   -0.920317
      2          6           0       -3.120033   -0.420752   -1.208702
      3          6           0       -2.471535   -1.440502   -0.264413
      4          6           0       -0.988938    0.895244   -1.161680
      5          6           0       -0.946461   -1.456791   -0.475889
      6          6           0       -0.276600   -0.080464   -0.186317
      7          6           0       -2.778811    1.359907    0.537745
      8          6           0       -0.639111    0.262210    1.277499
      9          6           0       -2.163427    0.315581    1.483708
     10          6           0       -2.776307   -1.062641    1.193491
     11          6           0        1.285343   -0.105998   -0.417171
     12          6           0        1.880631   -1.486609   -0.035447
     13          6           0        3.387359   -1.612158   -0.278617
     14          6           0        4.089774   -0.487454    0.473544
     15          7           0        2.062660    0.965321    0.241221
     16          6           0        3.501591    0.844113    0.001275
     17          1           0       -2.967467    1.709413   -1.606544
     18          1           0       -2.943434   -0.710408   -2.271759
     19          1           0       -4.225333   -0.395236   -1.058120
     20          1           0       -2.893352   -2.454627   -0.477551
     21          1           0       -0.616852    1.935488   -1.084139
     22          1           0       -0.791117    0.591345   -2.216462
     23          1           0       -0.722626   -1.780618   -1.519807
     24          1           0       -0.560704   -2.244404    0.210784
     25          1           0       -3.877951    1.436234    0.714133
     26          1           0       -2.347611    2.368010    0.744840
     27          1           0       -0.217917    1.242373    1.588361
     28          1           0       -0.192956   -0.491017    1.967530
     29          1           0       -2.385141    0.599180    2.542888
     30          1           0       -3.878338   -1.042627    1.367127
     31          1           0       -2.354986   -1.826248    1.889576
     32          1           0        1.444628   -0.014594   -1.518377
     33          1           0        1.428542   -2.305330   -0.641379
     34          1           0        1.672120   -1.693479    1.040596
     35          1           0        3.607860   -1.537733   -1.370648
     36          1           0        3.763377   -2.604427    0.070400
     37          1           0        5.189333   -0.523056    0.280568
     38          1           0        3.937578   -0.603887    1.573471
     39          1           0        4.050546    1.644015    0.554869
     40          1           0        3.722569    0.984770   -1.084445
     41          6           0        1.682100    2.322325   -0.139296
     42          1           0        0.705119    2.620578    0.293198
     43          1           0        2.380104    3.076317    0.292158
     44          1           0        1.681701    2.454345   -1.246297
 ---------------------------------------------------------------------

 SCF Done:  E(RHF) =  -676.256987798     A.U. after   12 cycles
 E2 =    -0.2962131682D+01 EUMP2 =    -0.67921911947956D+03

 The electronic state is 1-A.
 Alpha  occ. eigenvalues --  -15.54372 -11.25560 -11.24521 -11.24196 -11.23400
 Alpha  occ. eigenvalues --  -11.21956 -11.21892 -11.21842 -11.21769 -11.21654
 Alpha  occ. eigenvalues --  -11.21623 -11.21532 -11.21434 -11.21302 -11.21222
 Alpha  occ. eigenvalues --  -11.21184 -11.21042  -1.22565  -1.15828  -1.06659
 Alpha  occ. eigenvalues --   -1.05202  -1.03068  -1.02865  -0.98171  -0.92561
 Alpha  occ. eigenvalues --   -0.89981  -0.89789  -0.84289  -0.82764  -0.78838
 Alpha  occ. eigenvalues --   -0.78201  -0.76879  -0.73490  -0.69449  -0.64450
 Alpha  occ. eigenvalues --   -0.62433  -0.62223  -0.61325  -0.60567  -0.60296
 Alpha  occ. eigenvalues --   -0.59715  -0.58760  -0.57670  -0.55615  -0.55077
 Alpha  occ. eigenvalues --   -0.54193  -0.54023  -0.53247  -0.53007  -0.52274
 Alpha  occ. eigenvalues --   -0.52125  -0.49633  -0.48524  -0.46452  -0.45786
 Alpha  occ. eigenvalues --   -0.45601  -0.45262  -0.44969  -0.44639  -0.43819
 Alpha  occ. eigenvalues --   -0.42693  -0.39801  -0.39430  -0.39097  -0.34900
 Alpha virt. eigenvalues --    0.12789   0.14638   0.15039   0.15419   0.16838
 Alpha virt. eigenvalues --    0.16962   0.17201   0.18115   0.18677   0.18875
 Alpha virt. eigenvalues --    0.20315   0.20782   0.21069   0.21474   0.22254

 Mulliken atomic charges:
              1
     1  C   -0.080393
     2  C   -0.212469
     3  C   -0.080565
     4  C   -0.224139
     5  C   -0.228368
     6  C   -0.047260
     7  C   -0.213501
     8  C   -0.202674
     9  C   -0.079438
    10  C   -0.215032
    11  C    0.110013
    12  C   -0.205110
    13  C   -0.187858
    14  C   -0.171092
    15  N   -0.254377
    16  C   -0.065036
    17  H    0.098093
    18  H    0.096653
    19  H    0.094542
    20  H    0.099309
    21  H    0.120219
    22  H    0.098393
    23  H    0.100403
    24  H    0.106894
    25  H    0.098881
    26  H    0.095033
    27  H    0.121614
    28  H    0.103159
    29  H    0.098814
    30  H    0.096430
    31  H    0.096515
    32  H    0.081988
    33  H    0.108784
    34  H    0.090149
    35  H    0.084305
    36  H    0.097743
    37  H    0.094409
    38  H    0.083643
    39  H    0.087296
    40  H    0.051326
    41  C   -0.209457
    42  H    0.090609
    43  H    0.100567
    44  H    0.070985
 Sum of Mulliken atomic charges =   0.00000

 Dipole moment (field-independent basis, Debye):
    X=              0.1658    Y=              0.0174    Z=             -0.4599  Tot=              0.4892
 Quadrupole moment (field-independent basis, Debye-Ang):
   XX=           -108.8340   YY=           -108.0125   ZZ=           -110.3432
   XY=              0.1017   XZ=             -0.8666   YZ=             -0.2471

 Normal termination of Gaussian 09 at Thu Jun 23 01:15:47 2016.
