 Gaussian 09, Revision A.01,
 Gaussian 09:  EM64L-G09RevA.01  8-May-2009

 -------------
 # mp2/cc-pVTZ
 -------------

 -----------------------
 2-(1-Ad)-N-Meax-pip.hin
 -----------------------
 Symbolic Z-matrix:
 Charge =  0 Multiplicity = 1

                         Standard orientation:
 ---------------------------------------------------------------------
 Center     Atomic      Atomic             Coordinates (Angstroms)
 Number     Number       Type             X           Y           Z
 ---------------------------------------------------------------------
      1          6           0       -2.395176    1.208518   -0.776866
      2          6           0       -3.050725   -0.041356   -1.382212
      3          6           0       -2.546106   -1.279538   -0.626458
      4          6           0       -0.867018    1.104742   -0.912317
      5          6           0       -1.014270   -1.367101   -0.745026
      6          6           0       -0.308981   -0.117263   -0.143332
      7          6           0       -2.768483    1.325235    0.709832
      8          6           0       -0.752425   -0.045815    1.335904
      9          6           0       -2.282278    0.072903    1.456884
     10          6           0       -2.941926   -1.176869    0.854126
     11          6           0        1.237717   -0.238004   -0.351527
     12          6           0        1.920118   -1.294985    0.544772
     13          6           0        3.368004   -1.551008    0.102780
     14          6           0        4.139557   -0.230068    0.019435
     15          7           0        1.997382    1.020672   -0.377789
     16          6           0        3.361792    0.774733   -0.842492
     17          1           0       -2.758082    2.114966   -1.322786
     18          1           0       -2.800900   -0.121807   -2.466745
     19          1           0       -4.161923    0.030648   -1.310914
     20          1           0       -3.010431   -2.195806   -1.069513
     21          1           0       -0.426504    2.054209   -0.535360
     22          1           0       -0.587616    1.036741   -1.990067
     23          1           0       -0.749545   -1.485681   -1.822109
     24          1           0       -0.677217   -2.298391   -0.235559
     25          1           0       -3.873478    1.433759    0.820405
     26          1           0       -2.308096    2.240084    1.152767
     27          1           0       -0.294315    0.816265    1.864537
     28          1           0       -0.423401   -0.956611    1.886852
     29          1           0       -2.566286    0.152692    2.536001
     30          1           0       -4.051484   -1.117472    0.955965
     31          1           0       -2.616014   -2.090604    1.405474
     32          1           0        1.318926   -0.637869   -1.390846
     33          1           0        1.375000   -2.266070    0.506797
     34          1           0        1.914238   -0.978949    1.612390
     35          1           0        3.366974   -2.040656   -0.900530
     36          1           0        3.874979   -2.252682    0.808249
     37          1           0        5.150615   -0.408957   -0.419654
     38          1           0        4.308293    0.178141    1.043278
     39          1           0        3.925492    1.736164   -0.907450
     40          1           0        3.325822    0.397400   -1.892778
     41          6           0        2.016513    1.770394    0.871065
     42          1           0        2.696349    2.649633    0.791714
     43          1           0        1.024169    2.214671    1.093768
     44          1           0        2.344878    1.164362    1.743236
 ---------------------------------------------------------------------

 SCF Done:  E(RHF) =  -676.262061189     A.U. after   12 cycles
 E2 =    -0.2961628803D+01 EUMP2 =    -0.67922368999167D+03

 The electronic state is 1-A.
 Alpha  occ. eigenvalues --  -15.53856 -11.24972 -11.24507 -11.24092 -11.23024
 Alpha  occ. eigenvalues --  -11.22082 -11.21974 -11.21944 -11.21767 -11.21688
 Alpha  occ. eigenvalues --  -11.21595 -11.21531 -11.21356 -11.21335 -11.21269
 Alpha  occ. eigenvalues --  -11.21217 -11.20863  -1.22762  -1.15803  -1.06115
 Alpha  occ. eigenvalues --   -1.05104  -1.03004  -1.02851  -0.98258  -0.93416
 Alpha  occ. eigenvalues --   -0.89910  -0.89718  -0.84231  -0.83122  -0.78703
 Alpha  occ. eigenvalues --   -0.78252  -0.76885  -0.73194  -0.69432  -0.64732
 Alpha  occ. eigenvalues --   -0.63186  -0.61775  -0.61222  -0.60427  -0.60121
 Alpha  occ. eigenvalues --   -0.59964  -0.57834  -0.56828  -0.56198  -0.55314
 Alpha  occ. eigenvalues --   -0.54760  -0.54095  -0.53314  -0.52834  -0.52015
 Alpha  occ. eigenvalues --   -0.50852  -0.49269  -0.48397  -0.47769  -0.45719
 Alpha  occ. eigenvalues --   -0.45542  -0.45328  -0.45165  -0.44733  -0.44205
 Alpha  occ. eigenvalues --   -0.43958  -0.39741  -0.39646  -0.39263  -0.33633
 Alpha virt. eigenvalues --    0.12686   0.14330   0.15002   0.15594   0.16776
 Alpha virt. eigenvalues --    0.17080   0.17352   0.18206   0.18395   0.18705
 Alpha virt. eigenvalues --    0.20516   0.20973   0.21184   0.21432   0.22060

 Mulliken atomic charges:
              1
     1  C   -0.085211
     2  C   -0.213032
     3  C   -0.082690
     4  C   -0.201557
     5  C   -0.223793
     6  C   -0.043800
     7  C   -0.211723
     8  C   -0.235877
     9  C   -0.077741
    10  C   -0.212824
    11  C    0.109186
    12  C   -0.230119
    13  C   -0.184527
    14  C   -0.193339
    15  N   -0.232836
    16  C   -0.096660
    17  H    0.098913
    18  H    0.096693
    19  H    0.095833
    20  H    0.098857
    21  H    0.119410
    22  H    0.098211
    23  H    0.096549
    24  H    0.106328
    25  H    0.097857
    26  H    0.094816
    27  H    0.116869
    28  H    0.105792
    29  H    0.098359
    30  H    0.096900
    31  H    0.096038
    32  H    0.095731
    33  H    0.110644
    34  H    0.096979
    35  H    0.083498
    36  H    0.099592
    37  H    0.100867
    38  H    0.088262
    39  H    0.095334
    40  H    0.080342
    41  C   -0.228871
    42  H    0.104925
    43  H    0.096890
    44  H    0.074927
 Sum of Mulliken atomic charges =   0.00000

 Dipole moment (field-independent basis, Debye):
    X=              0.4231    Y=             -0.4190    Z=              0.5003  Tot=              0.7777
 Quadrupole moment (field-independent basis, Debye-Ang):
   XX=           -108.0591   YY=           -109.8227   ZZ=           -109.4067
   XY=              0.0063   XZ=              0.5170   YZ=              1.6662

 Normal termination of Gaussian 09 at Fri Jun 24 08:16:18 2016.
