 Gaussian 09, Revision A.01,
 Gaussian 09:  EM64L-G09RevA.01  8-May-2009

 -------------
 # mp2/cc-pVTZ
 -------------

 -------------------------
 2-(1-Ad)-N-Me-pip-ecl.hin
 -------------------------
 Symbolic Z-matrix:
 Charge =  0 Multiplicity = 1

                         Standard orientation:
 ---------------------------------------------------------------------
 Center     Atomic      Atomic             Coordinates (Angstroms)
 Number     Number       Type             X           Y           Z
 ---------------------------------------------------------------------
      1          6           0       -2.430525   -1.482846    0.165745
      2          6           0       -2.799740   -0.708973    1.437313
      3          6           0       -2.216039    0.703217    1.308753
      4          6           0       -0.897561   -1.504947    0.017083
      5          6           0       -0.689581    0.617540    1.127867
      6          6           0       -0.281072   -0.089360   -0.199756
      7          6           0       -3.070929   -0.806918   -1.056043
      8          6           0       -1.000302    0.567267   -1.397715
      9          6           0       -2.521529    0.621965   -1.182319
     10          6           0       -2.837058    1.415626    0.095893
     11          6           0        1.291436   -0.085336   -0.382599
     12          6           0        1.904348   -1.501434   -0.229571
     13          6           0        3.431206   -1.578914   -0.325051
     14          6           0        4.026830   -0.521545    0.606371
     15          7           0        2.052529    0.979447    0.287231
     16          6           0        3.498617    0.826941    0.114360
     17          1           0       -2.817451   -2.529229    0.251273
     18          1           0       -2.385520   -1.219631    2.338956
     19          1           0       -3.907186   -0.668166    1.567252
     20          1           0       -2.454955    1.278134    2.238467
     21          1           0       -0.678574   -2.139585   -0.872168
     22          1           0       -0.479189   -2.022620    0.910534
     23          1           0       -0.229259    0.089214    1.995958
     24          1           0       -0.322961    1.659307    1.208693
     25          1           0       -4.181253   -0.785218   -0.947433
     26          1           0       -2.849146   -1.390086   -1.981113
     27          1           0       -0.780030   -0.008013   -2.327598
     28          1           0       -0.627124    1.600387   -1.574111
     29          1           0       -3.001627    1.124633   -2.058788
     30          1           0       -3.941426    1.504197    0.228489
     31          1           0       -2.437331    2.454037    0.012288
     32          1           0        1.450695    0.086708   -1.474001
     33          1           0        1.488195   -2.220053   -0.974580
     34          1           0        1.655919   -1.870158    0.792215
     35          1           0        3.758204   -1.401190   -1.377539
     36          1           0        3.793543   -2.595834   -0.037985
     37          1           0        5.142055   -0.551596    0.553591
     38          1           0        3.728846   -0.702456    1.666797
     39          1           0        4.023296    1.615375    0.706907
     40          1           0        3.796200    0.971002   -0.952537
     41          6           0        1.742501    2.318122   -0.231061
     42          1           0        2.280605    3.098561    0.355635
     43          1           0        2.030360    2.424372   -1.303117
     44          1           0        0.673809    2.599345   -0.172343
 ---------------------------------------------------------------------

 SCF Done:  E(RHF) =  -676.244936679     A.U. after   12 cycles
 E2 =    -0.2963314750D+01 EUMP2 =    -0.67920825142909D+03

 The electronic state is 1-A.
 Alpha  occ. eigenvalues --  -15.54681 -11.25378 -11.24539 -11.24277 -11.23477
 Alpha  occ. eigenvalues --  -11.22047 -11.21914 -11.21905 -11.21866 -11.21817
 Alpha  occ. eigenvalues --  -11.21670 -11.21647 -11.21466 -11.21445 -11.21408
 Alpha  occ. eigenvalues --  -11.21069 -11.20745  -1.22754  -1.15815  -1.06701
 Alpha  occ. eigenvalues --   -1.05206  -1.03228  -1.02679  -0.98262  -0.92373
 Alpha  occ. eigenvalues --   -0.90172  -0.89627  -0.84360  -0.83073  -0.78922
 Alpha  occ. eigenvalues --   -0.78010  -0.77015  -0.73453  -0.69486  -0.64603
 Alpha  occ. eigenvalues --   -0.62443  -0.62057  -0.61403  -0.60769  -0.59916
 Alpha  occ. eigenvalues --   -0.59606  -0.58755  -0.57929  -0.55950  -0.54937
 Alpha  occ. eigenvalues --   -0.54456  -0.54021  -0.53244  -0.52826  -0.52250
 Alpha  occ. eigenvalues --   -0.51232  -0.50210  -0.48469  -0.46636  -0.45989
 Alpha  occ. eigenvalues --   -0.45723  -0.44965  -0.44870  -0.44350  -0.43819
 Alpha  occ. eigenvalues --   -0.42588  -0.39830  -0.39645  -0.38885  -0.34938
 Alpha virt. eigenvalues --    0.12707   0.14572   0.15021   0.15441   0.16783
 Alpha virt. eigenvalues --    0.16938   0.17220   0.18260   0.18513   0.18801
 Alpha virt. eigenvalues --    0.20375   0.20854   0.21006   0.21665   0.22316

 Mulliken atomic charges:
              1
     1  C   -0.076367
     2  C   -0.213769
     3  C   -0.082378
     4  C   -0.233998
     5  C   -0.190848
     6  C   -0.057205
     7  C   -0.214538
     8  C   -0.205311
     9  C   -0.081892
    10  C   -0.214762
    11  C    0.125160
    12  C   -0.205198
    13  C   -0.185678
    14  C   -0.174633
    15  N   -0.252459
    16  C   -0.067652
    17  H    0.099082
    18  H    0.097213
    19  H    0.093093
    20  H    0.098167
    21  H    0.096672
    22  H    0.112613
    23  H    0.099118
    24  H    0.120001
    25  H    0.096714
    26  H    0.096142
    27  H    0.098479
    28  H    0.113013
    29  H    0.099210
    30  H    0.098803
    31  H    0.095062
    32  H    0.059538
    33  H    0.113230
    34  H    0.081825
    35  H    0.083831
    36  H    0.097952
    37  H    0.095305
    38  H    0.088251
    39  H    0.087123
    40  H    0.054644
    41  C   -0.214501
    42  H    0.099711
    43  H    0.070911
    44  H    0.100328
 Sum of Mulliken atomic charges =   0.00000

 Dipole moment (field-independent basis, Debye):
    X=              0.2107    Y=             -0.0514    Z=             -0.5689  Tot=              0.6088
 Quadrupole moment (field-independent basis, Debye-Ang):
   XX=           -108.4458   YY=           -108.1455   ZZ=           -110.4777
   XY=             -0.1526   XZ=             -0.5412   YZ=             -0.5347

 Normal termination of Gaussian 09 at Thu Jun 23 11:32:19 2016.
