 Gaussian 09, Revision A.01,
 Gaussian 09:  EM64L-G09RevA.01  8-May-2009

 -------------
 # mp2/cc-pVTZ
 -------------

 ---------------------------------------
 3,3-Dimethil-N-methylpyrrolidine-NI.hin
 ---------------------------------------
 Symbolic Z-matrix:
 Charge =  0 Multiplicity = 1

                         Standard orientation:
 ---------------------------------------------------------------------
 Center     Atomic      Atomic             Coordinates (Angstroms)
 Number     Number       Type             X           Y           Z
 ---------------------------------------------------------------------
      1          6           0       -1.020748   -0.092930   -0.005888
      2          6           0       -0.506805    1.312776   -0.383576
      3          6           0        0.984299    1.275770   -0.011264
      4          6           0        0.194290   -0.976604   -0.352120
      5          7           0        1.317923   -0.117940   -0.104208
      6          6           0        2.654210   -0.615678    0.041938
      7          1           0       -1.063693    2.133645    0.125969
      8          1           0       -0.603265    1.461760   -1.485359
      9          6           0       -2.275050   -0.493927   -0.796891
     10          6           0       -1.322626   -0.162699    1.504604
     11          1           0        1.153848    1.618270    1.036128
     12          1           0        1.605026    1.885176   -0.709195
     13          1           0        0.203602   -1.254621   -1.431422
     14          1           0        0.242036   -1.900784    0.268747
     15          1           0        2.858267   -1.388937   -0.732915
     16          1           0        3.395852    0.206755   -0.073784
     17          1           0        2.769998   -1.067030    1.053159
     18          1           0       -2.098639   -0.454440   -1.895911
     19          1           0       -3.123965    0.190169   -0.568889
     20          1           0       -2.589106   -1.532558   -0.545348
     21          1           0       -2.138626    0.542397    1.783228
     22          1           0       -0.432977    0.091292    2.124009
     23          1           0       -1.649247   -1.185767    1.800228
 ---------------------------------------------------------------------

 SCF Done:  E(RHF) =  -328.341084137     A.U. after   12 cycles
 E2 =    -0.1432432095D+01 EUMP2 =    -0.32977351623172D+03

 The electronic state is 1-A.
 Alpha  occ. eigenvalues --  -15.51585 -11.24555 -11.24526 -11.24296 -11.23356
 Alpha  occ. eigenvalues --  -11.22066 -11.21753 -11.21657  -1.23192  -1.08427
 Alpha  occ. eigenvalues --   -0.99160  -0.93914  -0.92127  -0.87249  -0.76603
 Alpha  occ. eigenvalues --   -0.73548  -0.65562  -0.64156  -0.60334  -0.59347
 Alpha  occ. eigenvalues --   -0.56903  -0.56450  -0.55371  -0.52884  -0.51033
 Alpha  occ. eigenvalues --   -0.50461  -0.49289  -0.49156  -0.45239  -0.44832
 Alpha  occ. eigenvalues --   -0.44043  -0.30855
 Alpha virt. eigenvalues --    0.13121   0.15393   0.17332   0.17596   0.18927
 Alpha virt. eigenvalues --    0.19536   0.20167   0.20895   0.21955   0.22834
 Alpha virt. eigenvalues --    0.23648   0.24841   0.26280   0.26870   0.27768

 Mulliken atomic charges:
              1
     1  C    0.019092
     2  C   -0.174802
     3  C   -0.098319
     4  C   -0.051044
     5  N   -0.190881
     6  C   -0.169941
     7  H    0.096796
     8  H    0.089832
     9  C   -0.290758
    10  C   -0.307649
    11  H    0.061403
    12  H    0.076898
    13  H    0.065347
    14  H    0.071273
    15  H    0.075489
    16  H    0.084998
    17  H    0.070328
    18  H    0.091886
    19  H    0.094541
    20  H    0.093878
    21  H    0.093480
    22  H    0.103549
    23  H    0.094606
 Sum of Mulliken atomic charges =   0.00000

 Dipole moment (field-independent basis, Debye):
    X=             -0.1001    Y=              0.0991    Z=             -0.0548  Tot=              0.1511
 Quadrupole moment (field-independent basis, Debye-Ang):
   XX=            -53.2900   YY=            -53.0262   ZZ=            -53.9217
   XY=             -0.0987   XZ=             -0.3424   YZ=             -0.2056

 Normal termination of Gaussian 09 at Sat Jun  4 23:43:54 2016.
