 Gaussian 09, Revision A.01,
 Gaussian 09:  EM64L-G09RevA.01  8-May-2009

 -------------
 # mp2/cc-pVTZ
 -------------

 ----------------------------------------
 3,3-Dimethil-N-methylpyrrolidine-nlp.hin
 ----------------------------------------
 Symbolic Z-matrix:
 Charge =  0 Multiplicity = 1

                         Standard orientation:
 ---------------------------------------------------------------------
 Center     Atomic      Atomic             Coordinates (Angstroms)
 Number     Number       Type             X           Y           Z
 ---------------------------------------------------------------------
      1          6           0       -1.021925   -0.077343   -0.020895
      2          6           0       -0.495696    1.375622    0.009877
      3          6           0        1.038240    1.238443    0.024400
      4          6           0        0.228584   -0.861367   -0.459694
      5          7           0        1.288377   -0.171410    0.240364
      6          6           0        2.624854   -0.607403   -0.093563
      7          1           0       -0.873629    1.933395    0.898496
      8          1           0       -0.816823    1.939745   -0.897329
      9          6           0       -2.192301   -0.269630   -0.996884
     10          6           0       -1.451333   -0.516016    1.393950
     11          1           0        1.513841    1.837575    0.835632
     12          1           0        1.458553    1.561385   -0.958526
     13          1           0        0.380471   -0.785073   -1.562744
     14          1           0        0.185899   -1.936584   -0.169585
     15          1           0        2.845153   -0.459727   -1.176073
     16          1           0        3.367016   -0.037906    0.510784
     17          1           0        2.738644   -1.687138    0.154303
     18          1           0       -1.915680    0.031351   -2.033027
     19          1           0       -3.070437    0.343424   -0.690722
     20          1           0       -2.510184   -1.336582   -1.031734
     21          1           0       -2.322105    0.079441    1.751923
     22          1           0       -0.629170   -0.388985    2.134877
     23          1           0       -1.752720   -1.588283    1.408032
 ---------------------------------------------------------------------

 SCF Done:  E(RHF) =  -328.350773536     A.U. after   11 cycles
 E2 =    -0.1434816528D+01 EUMP2 =    -0.32978559006399D+03

 The electronic state is 1-A.
 Alpha  occ. eigenvalues --  -15.53604 -11.24496 -11.24485 -11.24238 -11.23211
 Alpha  occ. eigenvalues --  -11.21954 -11.21764 -11.21188  -1.24311  -1.08456
 Alpha  occ. eigenvalues --   -0.98977  -0.93636  -0.91881  -0.87079  -0.77642
 Alpha  occ. eigenvalues --   -0.73381  -0.65936  -0.64024  -0.60214  -0.59603
 Alpha  occ. eigenvalues --   -0.57446  -0.55649  -0.55317  -0.53267  -0.51009
 Alpha  occ. eigenvalues --   -0.49401  -0.48955  -0.48430  -0.44991  -0.44331
 Alpha  occ. eigenvalues --   -0.44015  -0.34640
 Alpha virt. eigenvalues --    0.13427   0.15371   0.17088   0.17450   0.18924
 Alpha virt. eigenvalues --    0.19913   0.20727   0.20874   0.21650   0.23148
 Alpha virt. eigenvalues --    0.23477   0.25238   0.26007   0.26472   0.27614

 Mulliken atomic charges:
              1
     1  C    0.042990
     2  C   -0.198770
     3  C   -0.077110
     4  C   -0.060047
     5  N   -0.222421
     6  C   -0.176655
     7  H    0.097460
     8  H    0.095763
     9  C   -0.292114
    10  C   -0.303255
    11  H    0.086509
    12  H    0.063192
    13  H    0.065680
    14  H    0.088383
    15  H    0.052188
    16  H    0.089493
    17  H    0.088709
    18  H    0.089571
    19  H    0.095718
    20  H    0.092847
    21  H    0.089913
    22  H    0.104838
    23  H    0.087120
 Sum of Mulliken atomic charges =   0.00000

 Dipole moment (field-independent basis, Debye):
    X=              0.0531    Y=              0.1447    Z=             -0.5202  Tot=              0.5426
 Quadrupole moment (field-independent basis, Debye-Ang):
   XX=            -53.2166   YY=            -52.2911   ZZ=            -54.6076
   XY=             -0.1817   XZ=             -0.3551   YZ=              0.5462

 Normal termination of Gaussian 09 at Sat Jun  4 23:18:04 2016.
