 Gaussian 09, Revision A.01,
 Gaussian 09:  EM64L-G09RevA.01  8-May-2009

 -------------
 # mp2/cc-pVTZ
 -------------

 -----------
 acetone.hin
 -----------
 Symbolic Z-matrix:
 Charge =  0 Multiplicity = 1

                         Standard orientation:
 ---------------------------------------------------------------------
 Center     Atomic      Atomic             Coordinates (Angstroms)
 Number     Number       Type             X           Y           Z
 ---------------------------------------------------------------------
      1          6           0        1.290561   -0.612951    0.000178
      2          6           0       -0.000343    0.183864   -0.000536
      3          8           0        0.001022    1.394279    0.000033
      4          6           0       -1.291308   -0.612011   -0.000109
      5          1           0        1.288798   -1.345457   -0.838569
      6          1           0        2.175887    0.052375   -0.121559
      7          1           0        1.396914   -1.163380    0.962663
      8          1           0       -1.387214   -1.183865   -0.950960
      9          1           0       -1.300172   -1.325897    0.854461
     10          1           0       -2.175853    0.058578    0.096501
 ---------------------------------------------------------------------

 SCF Done:  E(RHF) =  -192.030056531     A.U. after   12 cycles
 E2 =    -0.7418092255D+00 EUMP2 =    -0.19277186575614D+03

 The electronic state is 1-A.
 Alpha  occ. eigenvalues --  -20.54266 -11.33250 -11.24308 -11.24298  -1.38540
 Alpha  occ. eigenvalues --   -1.03565  -0.95954  -0.73835  -0.64003  -0.63264
 Alpha  occ. eigenvalues --   -0.62078  -0.55782  -0.55206  -0.52937  -0.48758
 Alpha  occ. eigenvalues --   -0.41282
 Alpha virt. eigenvalues --    0.12568   0.14530   0.17734   0.20090   0.20452
 Alpha virt. eigenvalues --    0.22924   0.23814   0.26950   0.32967   0.33969
 Alpha virt. eigenvalues --    0.37117   0.38837   0.41566   0.49230   0.49352

 Mulliken atomic charges:
              1
     1  C   -0.278928
     2  C    0.292714
     3  O   -0.349990
     4  C   -0.279043
     5  H    0.090100
     6  H    0.121172
     7  H    0.096229
     8  H    0.095957
     9  H    0.090660
    10  H    0.121129
 Sum of Mulliken atomic charges =   0.00000

 Dipole moment (field-independent basis, Debye):
    X=             -0.0041    Y=             -3.2433    Z=              0.0019  Tot=              3.2433
 Quadrupole moment (field-independent basis, Debye-Ang):
   XX=            -23.5511   YY=            -29.6634   ZZ=            -24.2394
   XY=             -0.0007   XZ=              0.0302   YZ=             -0.0025

 Normal termination of Gaussian 09 at Sat Jun  4 22:46:53 2016.
