 Gaussian 09, Revision A.01,
 Gaussian 09:  EM64L-G09RevA.01  8-May-2009

 -------------
 # mp2/cc-pVTZ
 -------------

 ---------------
 acetone-ecl.hin
 ---------------
 Symbolic Z-matrix:
 Charge =  0 Multiplicity = 1

                         Standard orientation:
 ---------------------------------------------------------------------
 Center     Atomic      Atomic             Coordinates (Angstroms)
 Number     Number       Type             X           Y           Z
 ---------------------------------------------------------------------
      1          6           0       -1.291129   -0.616518    0.000054
      2          6           0        0.001076    0.177988   -0.000375
      3          8           0       -0.011479    1.388386    0.000091
      4          6           0        1.301279   -0.602772    0.000052
      5          1           0       -1.889826   -0.367400    0.905461
      6          1           0       -1.889666   -0.368481   -0.905751
      7          1           0       -1.095717   -1.712772    0.000686
      8          1           0        2.180519    0.081208   -0.000538
      9          1           0        1.359671   -1.245266    0.907748
     10          1           0        1.359495   -1.246562   -0.906728
 ---------------------------------------------------------------------

 SCF Done:  E(RHF) =  -192.028902915     A.U. after   11 cycles
 E2 =    -0.7418996410D+00 EUMP2 =    -0.19277080255581D+03

 The electronic state is 1-A.
 Alpha  occ. eigenvalues --  -20.54073 -11.33265 -11.24318 -11.24272  -1.38465
 Alpha  occ. eigenvalues --   -1.03458  -0.96029  -0.73794  -0.63901  -0.63295
 Alpha  occ. eigenvalues --   -0.61793  -0.56127  -0.55569  -0.52785  -0.48342
 Alpha  occ. eigenvalues --   -0.41196
 Alpha virt. eigenvalues --    0.12616   0.14353   0.17620   0.20587   0.20604
 Alpha virt. eigenvalues --    0.21601   0.22755   0.26760   0.32905   0.35517
 Alpha virt. eigenvalues --    0.38993   0.39462   0.41718   0.45167   0.50473

 Mulliken atomic charges:
              1
     1  C   -0.281947
     2  C    0.296387
     3  O   -0.359446
     4  C   -0.285945
     5  H    0.115943
     6  H    0.115883
     7  H    0.089160
     8  H    0.119915
     9  H    0.095049
    10  H    0.095001
 Sum of Mulliken atomic charges =   0.00000

 Dipole moment (field-independent basis, Debye):
    X=             -0.0109    Y=             -3.2204    Z=             -0.0004  Tot=              3.2204
 Quadrupole moment (field-independent basis, Debye-Ang):
   XX=            -23.4522   YY=            -29.7636   ZZ=            -24.1604
   XY=             -0.0174   XZ=              0.0002   YZ=             -0.0006

 Normal termination of Gaussian 09 at Sat Jun  4 22:44:56 2016.
