 Gaussian 09, Revision E.01,
 Gaussian 09:  ES64L-G09RevE.01 30-Nov-2015

 -------------
 # mp2/cc-pVTZ
 -------------

 ----------------
 Adamantyl-CMe2Cl
 ----------------
 Symbolic Z-matrix:
 Charge =  0 Multiplicity = 1

                         Standard orientation:
 ---------------------------------------------------------------------
 Center     Atomic      Atomic             Coordinates (Angstroms)
 Number     Number       Type             X           Y           Z
 ---------------------------------------------------------------------
      1          6           0        2.136071   -1.591548    0.000313
      2          6           0        1.717545   -0.806384   -1.248826
      3          6           0        0.193103   -0.611752   -1.253229
      4          6           0        1.717611   -0.805850    1.249136
      5          6           0        0.193167   -0.611224    1.253528
      6          6           0       -0.276411    0.168805   -0.000002
      7          6           0        2.409320    0.562857   -1.252294
      8          6           0        1.986320    1.341649   -0.000311
      9          6           0        0.460042    1.536543   -0.000307
     10          6           0        2.409387    0.563392    1.251983
     11          6           0       -1.831108    0.394182   -0.000001
     12          6           0       -2.360490    1.112689    1.244998
     13          6           0       -2.360508    1.112698   -1.244990
     14         17           0       -2.678668   -1.253641   -0.000000
     15          1           0        3.212291   -1.754195    0.000321
     16          1           0        1.666552   -2.573058    0.000536
     17          1           0        1.998784   -1.360758   -2.141363
     18          1           0       -0.296837   -1.577884   -1.293749
     19          1           0       -0.083729   -0.076618   -2.156150
     20          1           0        1.998896   -1.359842    2.141896
     21          1           0       -0.083635   -0.075716    2.156239
     22          1           0       -0.296761   -1.577343    1.294474
     23          1           0        2.139333    1.117397   -2.149262
     24          1           0        3.490544    0.440499   -1.269877
     25          1           0        2.459028    2.321444   -0.000533
     26          1           0        0.182544    2.118859   -0.873674
     27          1           0        0.182604    2.119215    0.872839
     28          1           0        3.490612    0.441042    1.269559
     29          1           0        2.139448    1.118315    2.148727
     30          1           0       -3.439220    1.189169    1.187195
     31          1           0       -2.115783    0.589718    2.158200
     32          1           0       -1.958275    2.118194    1.299015
     33          1           0       -3.439223    1.189316   -1.187099
     34          1           0       -1.958170    2.118151   -1.299082
     35          1           0       -2.115947    0.589661   -2.158191
 ---------------------------------------------------------------------

 SCF Done:  E(RHF) =  -964.219226972     A.U. after   13 cycles
 E2 =    -0.2425466968D+01 EUMP2 =    -0.96664469394067D+03

 The electronic state is 1-A.
 Alpha  occ. eigenvalues -- -104.80002 -11.30365 -11.24320 -11.22139 -11.21983
 Alpha  occ. eigenvalues --  -11.21982 -11.21805 -11.21784 -11.21783 -11.21082
 Alpha  occ. eigenvalues --  -11.21080 -11.20929 -11.20928 -11.20851 -10.52566
 Alpha  occ. eigenvalues --   -7.99223  -7.99077  -7.99075  -1.17685  -1.13415
 Alpha  occ. eigenvalues --   -1.04282  -1.03951  -1.03680  -1.00080  -0.95003
 Alpha  occ. eigenvalues --   -0.91216  -0.90828  -0.83251  -0.79864  -0.79738
 Alpha  occ. eigenvalues --   -0.73428  -0.70900  -0.63833  -0.62452  -0.62224
 Alpha  occ. eigenvalues --   -0.62111  -0.60940  -0.59475  -0.59087  -0.56940
 Alpha  occ. eigenvalues --   -0.56475  -0.55939  -0.54789  -0.54490  -0.52837
 Alpha  occ. eigenvalues --   -0.50965  -0.50574  -0.48693  -0.46594  -0.46247
 Alpha  occ. eigenvalues --   -0.46070  -0.45660  -0.45307  -0.42856  -0.41666
 Alpha  occ. eigenvalues --   -0.40543  -0.40253  -0.40121
 Alpha virt. eigenvalues --    0.12490   0.15225   0.15652   0.15956   0.17227
 Alpha virt. eigenvalues --    0.17749   0.18046   0.19007   0.19639   0.20768
 Alpha virt. eigenvalues --    0.20953   0.21623   0.22176   0.23172   0.23269

 Mulliken charges:
               1
     1  C   -0.232292
     2  C   -0.088768
     3  C   -0.244538
     4  C   -0.088768
     5  C   -0.244549
     6  C    0.011405
     7  C   -0.233751
     8  C   -0.088238
     9  C   -0.260213
    10  C   -0.233752
    11  C    0.124235
    12  C   -0.302288
    13  C   -0.302283
    14  Cl  -0.272343
    15  H    0.108373
    16  H    0.110333
    17  H    0.114506
    18  H    0.141963
    19  H    0.114327
    20  H    0.114506
    21  H    0.114325
    22  H    0.141952
    23  H    0.106752
    24  H    0.109918
    25  H    0.114537
    26  H    0.122709
    27  H    0.122711
    28  H    0.109918
    29  H    0.106753
    30  H    0.126382
    31  H    0.122634
    32  H    0.102264
    33  H    0.126378
    34  H    0.102261
    35  H    0.122641
 Sum of Mulliken charges =  -0.00000

 Dipole moment (field-independent basis, Debye):
    X=              1.4490    Y=              2.0118    Z=             -0.0000  Tot=              2.4793
 Quadrupole moment (field-independent basis, Debye-Ang):
   XX=           -100.2050   YY=            -96.1751   ZZ=            -94.6046
   XY=             -5.5090   XZ=              0.0001   YZ=              0.0000

 Normal termination of Gaussian 09 at Thu Jul 12 00:46:58 2018.
