 Gaussian 09, Revision E.01,
 Gaussian 09:  ES64L-G09RevE.01 30-Nov-2015

 -------------
 # mp2/cc-pVTZ
 -------------

 -------------------
 Adamantyl-CMe2Cl-ts
 -------------------
 Symbolic Z-matrix:
 Charge =  0 Multiplicity = 1

                         Standard orientation:
 ---------------------------------------------------------------------
 Center     Atomic      Atomic             Coordinates (Angstroms)
 Number     Number       Type             X           Y           Z
 ---------------------------------------------------------------------
      1          6           0        2.274099    0.878854   -1.258138
      2          6           0        1.668090    1.529372   -0.000604
      3          6           0        0.136170    1.338705   -0.000560
      4          6           0        1.938457   -0.624058   -1.253116
      5          6           0        0.405522   -0.813955   -1.253415
      6          6           0       -0.259438   -0.166204   -0.000042
      7          6           0        2.273995    0.879907    1.257519
      8          6           0        1.938320   -0.622999    1.253707
      9          6           0        0.405384   -0.812875    1.253974
     10          6           0        2.542031   -1.284393    0.000605
     11          6           0       -1.858986   -0.400592    0.000035
     12          6           0       -2.399433   -1.119635   -1.244839
     13          6           0       -2.399349   -1.119693    1.244891
     14         17           0       -2.793930    1.240321   -0.000016
     15          1           0        3.362521    1.024522   -1.277086
     16          1           0        1.871335    1.354244   -2.162632
     17          1           0        1.882162    2.606073   -0.001048
     18          1           0       -0.291870    1.834288   -0.878025
     19          1           0       -0.291884    1.834882    0.876554
     20          1           0        2.346639   -1.098869   -2.155085
     21          1           0        0.184684   -1.887526   -1.289269
     22          1           0       -0.004786   -0.371427   -2.167838
     23          1           0        1.871159    1.356054    2.161583
     24          1           0        3.362419    1.025572    1.276438
     25          1           0        2.346387   -1.097073    2.156117
     26          1           0       -0.005050   -0.369523    2.167947
     27          1           0        0.184536   -1.886408    1.290752
     28          1           0        3.634569   -1.172862    0.000618
     29          1           0        2.330417   -2.362446    0.001047
     30          1           0       -3.486713   -1.201089   -1.174276
     31          1           0       -2.162271   -0.590638   -2.169288
     32          1           0       -1.988977   -2.132920   -1.307500
     33          1           0       -3.486636   -1.201128    1.174402
     34          1           0       -1.988903   -2.132995    1.307410
     35          1           0       -2.162092   -0.590800    2.169372
 ---------------------------------------------------------------------

 SCF Done:  E(RHF) =  -964.200609170     A.U. after   13 cycles
 E2 =    -0.2426966018D+01 EUMP2 =    -0.96662757518836D+03

 The electronic state is 1-A.
 Alpha  occ. eigenvalues -- -104.79660 -11.31176 -11.25169 -11.22465 -11.22464
 Alpha  occ. eigenvalues --  -11.22462 -11.22461 -11.22078 -11.22060 -11.22058
 Alpha  occ. eigenvalues --  -11.21645 -11.21434 -11.21430 -11.21219 -10.52200
 Alpha  occ. eigenvalues --   -7.98851  -7.98710  -7.98708  -1.16981  -1.12647
 Alpha  occ. eigenvalues --   -1.03890  -1.03816  -1.03273  -0.99808  -0.94808
 Alpha  occ. eigenvalues --   -0.90675  -0.90485  -0.82625  -0.79542  -0.79481
 Alpha  occ. eigenvalues --   -0.73261  -0.70713  -0.63459  -0.62588  -0.61924
 Alpha  occ. eigenvalues --   -0.61911  -0.60275  -0.59075  -0.58928  -0.56283
 Alpha  occ. eigenvalues --   -0.55803  -0.55371  -0.54440  -0.54118  -0.53380
 Alpha  occ. eigenvalues --   -0.50782  -0.50718  -0.48482  -0.46598  -0.46293
 Alpha  occ. eigenvalues --   -0.45914  -0.45614  -0.44763  -0.41972  -0.41860
 Alpha  occ. eigenvalues --   -0.40541  -0.40139  -0.39888
 Alpha virt. eigenvalues --    0.12178   0.14943   0.15579   0.15811   0.16780
 Alpha virt. eigenvalues --    0.17360   0.18080   0.18509   0.18773   0.19610
 Alpha virt. eigenvalues --    0.20693   0.22006   0.22294   0.23244   0.23497

 Mulliken charges:
               1
     1  C   -0.225640
     2  C   -0.095274
     3  C   -0.205878
     4  C   -0.091546
     5  C   -0.229461
     6  C   -0.032603
     7  C   -0.225642
     8  C   -0.091542
     9  C   -0.229473
    10  C   -0.226365
    11  C    0.124392
    12  C   -0.288776
    13  C   -0.288784
    14  Cl  -0.285162
    15  H    0.105785
    16  H    0.105883
    17  H    0.113074
    18  H    0.132500
    19  H    0.132523
    20  H    0.112454
    21  H    0.114231
    22  H    0.119772
    23  H    0.105887
    24  H    0.105781
    25  H    0.112452
    26  H    0.119756
    27  H    0.114250
    28  H    0.106951
    29  H    0.103618
    30  H    0.124777
    31  H    0.118792
    32  H    0.099845
    33  H    0.124780
    34  H    0.099840
    35  H    0.118801
 Sum of Mulliken charges =  -0.00000

 Dipole moment (field-independent basis, Debye):
    X=              1.6538    Y=             -2.0610    Z=              0.0000  Tot=              2.6425
 Quadrupole moment (field-independent basis, Debye-Ang):
   XX=           -101.4670   YY=            -96.4655   ZZ=            -94.6910
   XY=              5.8492   XZ=             -0.0002   YZ=             -0.0000

 Normal termination of Gaussian 09 at Thu Jul 12 00:46:39 2018.
