 Gaussian 09, Revision E.01,
 Gaussian 09:  ES64L-G09RevE.01 30-Nov-2015

 -------------
 # mp2/cc-pVTZ
 -------------

 -------------------
 bicyclooctyl-CMe2Cl
 -------------------
 Symbolic Z-matrix:
 Charge =  0 Multiplicity = 1

                         Standard orientation:
 ---------------------------------------------------------------------
 Center     Atomic      Atomic             Coordinates (Angstroms)
 Number     Number       Type             X           Y           Z
 ---------------------------------------------------------------------
      1          6           0       -2.310295   -0.717482   -1.145393
      2          6           0       -0.757406   -0.801365   -1.239853
      3          6           0       -2.719084    0.219609    0.000428
      4          6           0       -0.075075   -0.142198   -0.003312
      5          6           0       -1.994699    1.561232   -0.179367
      6          6           0       -0.457986    1.366101   -0.025624
      7          6           0       -2.267322   -0.405643    1.327944
      8          6           0       -0.750591   -0.754601    1.262729
      9          6           0        1.517853   -0.397220    0.003192
     10          6           0        2.049425   -1.117320   -1.246502
     11         17           0        2.475875    1.230939    0.001762
     12          6           0        2.050360   -1.129544    1.242990
     13          1           0       -2.736387   -1.713990   -0.974405
     14          1           0       -2.726330   -0.359549   -2.094462
     15          1           0       -0.414256   -0.300358   -2.150879
     16          1           0       -0.459335   -1.849879   -1.327831
     17          1           0       -3.805781    0.368163    0.000246
     18          1           0       -2.357871    2.287884    0.557043
     19          1           0       -2.230419    1.975518   -1.167622
     20          1           0       -0.102798    1.837806    0.895484
     21          1           0        0.063108    1.867614   -0.843986
     22          1           0       -2.852566   -1.308058    1.541479
     23          1           0       -2.462997    0.294408    2.149631
     24          1           0       -0.623204   -1.843030    1.254116
     25          1           0       -0.257038   -0.388791    2.166435
     26          1           0        3.138755   -1.180330   -1.194130
     27          1           0        1.655995   -2.138018   -1.295130
     28          1           0        1.786253   -0.598701   -2.169954
     29          1           0        3.132122   -1.255176    1.153395
     30          1           0        1.852526   -0.586271    2.168210
     31          1           0        1.599260   -2.124615    1.319019
 ---------------------------------------------------------------------

 SCF Done:  E(RHF) =  -887.256564024     A.U. after   13 cycles
 E2 =    -0.2096644398D+01 EUMP2 =    -0.88935320842196D+03

 The electronic state is 1-A.
 Alpha  occ. eigenvalues -- -104.79686 -11.31248 -11.25162 -11.22521 -11.22479
 Alpha  occ. eigenvalues --  -11.22269 -11.22224 -11.22168 -11.21924 -11.21875
 Alpha  occ. eigenvalues --  -11.21504 -11.21381 -10.52226  -7.98877  -7.98737
 Alpha  occ. eigenvalues --   -7.98734  -1.16053  -1.11780  -1.02564  -1.00277
 Alpha  occ. eigenvalues --   -1.00160  -0.98857  -0.94342  -0.83390  -0.83309
 Alpha  occ. eigenvalues --   -0.82649  -0.75000  -0.68149  -0.65552  -0.65091
 Alpha  occ. eigenvalues --   -0.64647  -0.60420  -0.59387  -0.58271  -0.56282
 Alpha  occ. eigenvalues --   -0.55381  -0.53087  -0.52850  -0.52187  -0.51980
 Alpha  occ. eigenvalues --   -0.51332  -0.50086  -0.48780  -0.48332  -0.46245
 Alpha  occ. eigenvalues --   -0.46061  -0.42468  -0.42252  -0.41256  -0.40423
 Alpha  occ. eigenvalues --   -0.40109
 Alpha virt. eigenvalues --    0.12345   0.15003   0.15706   0.16219   0.17176
 Alpha virt. eigenvalues --    0.18051   0.18346   0.19257   0.19504   0.20512
 Alpha virt. eigenvalues --    0.21496   0.22433   0.23273   0.23670   0.24778

 Mulliken charges:
               1
     1  C   -0.219772
     2  C   -0.237482
     3  C   -0.062588
     4  C    0.009026
     5  C   -0.221386
     6  C   -0.217631
     7  C   -0.219562
     8  C   -0.236226
     9  C    0.128518
    10  C   -0.288555
    11  Cl  -0.284467
    12  C   -0.287830
    13  H    0.101857
    14  H    0.110060
    15  H    0.113853
    16  H    0.113234
    17  H    0.106247
    18  H    0.108520
    19  H    0.102328
    20  H    0.124880
    21  H    0.132366
    22  H    0.108067
    23  H    0.104389
    24  H    0.107342
    25  H    0.118135
    26  H    0.124869
    27  H    0.099450
    28  H    0.118947
    29  H    0.123345
    30  H    0.119434
    31  H    0.100630
 Sum of Mulliken charges =  -0.00000

 Dipole moment (field-independent basis, Debye):
    X=             -1.6472    Y=             -2.0734    Z=             -0.0028  Tot=              2.6480
 Quadrupole moment (field-independent basis, Debye-Ang):
   XX=            -88.7908   YY=            -84.5626   ZZ=            -82.7701
   XY=             -5.0737   XZ=              0.0010   YZ=             -0.0109

 Normal termination of Gaussian 09 at Fri Jul 13 01:15:37 2018.
