 Gaussian 09, Revision C.01,
 Gaussian 09:  AM64L-G09RevC.01 23-Sep-2011

 -------------
 # mp2/cc-pVTZ
 -------------

 99/5=1,9=1/99;
 -------------------
 bicyclooctyl-CMe2Cl
 -------------------
 Charge =  0 Multiplicity = 1

                         Standard orientation:
 ---------------------------------------------------------------------
 Center     Atomic      Atomic             Coordinates (Angstroms)
 Number     Number       Type             X           Y           Z
 ---------------------------------------------------------------------
      1          6           0       -2.385188   -1.202379    0.000000
      2          6           0       -1.696299    0.189118    0.000000
      3          6           0       -1.336455   -2.316585    0.000000
      4          6           0       -0.151553    0.039734    0.000000
      5          6           0       -0.456650   -2.174530    1.242435
      6          6           0        0.228886   -0.783489    1.255040
      7          6           0       -0.456650   -2.174530   -1.242435
      8          6           0        0.228886   -0.783489   -1.255040
      9          6           0        0.528815    1.454561    0.000000
     10          6           0        0.228886    2.295595    1.244912
     11         17           0        2.369831    1.239160    0.000000
     12          6           0        0.228886    2.295595   -1.244912
     13          1           0       -3.027494   -1.302943   -0.870653
     14          1           0       -3.027494   -1.302943    0.870653
     15          1           0       -2.017086    0.750428    0.870023
     16          1           0       -2.017086    0.750428   -0.870023
     17          1           0       -1.827731   -3.286424    0.000000
     18          1           0        0.290209   -2.963550    1.253526
     19          1           0       -1.058358   -2.306522    2.137789
     20          1           0        1.303995   -0.896671    1.305448
     21          1           0       -0.070052   -0.247063    2.147855
     22          1           0       -1.058358   -2.306522   -2.137789
     23          1           0        0.290209   -2.963550   -1.253526
     24          1           0       -0.070052   -0.247063   -2.147855
     25          1           0        1.303995   -0.896671   -1.305448
     26          1           0        0.766921    3.233578    1.185699
     27          1           0       -0.829990    2.522559    1.300004
     28          1           0        0.527461    1.801728    2.158275
     29          1           0        0.766921    3.233578   -1.185699
     30          1           0        0.527461    1.801728   -2.158275
     31          1           0       -0.829990    2.522559   -1.300004
 ---------------------------------------------------------------------

 SCF Done:  E(RHF) =  -887.274540739     A.U. after   13 cycles
 E2 =    -0.2094767553D+01 EUMP2 =    -0.88936930829196D+03

 The electronic state is 1-A'.
 Alpha  occ. eigenvalues -- -104.80017 -11.30429 -11.24322 -11.22009 -11.22008
 Alpha  occ. eigenvalues --  -11.21983 -11.21751 -11.21550 -11.21173 -11.21169
 Alpha  occ. eigenvalues --  -11.21082 -11.21080 -10.52582  -7.99239  -7.99093
 Alpha  occ. eigenvalues --   -7.99091  -1.16872  -1.12327  -1.02931  -1.00499
 Alpha  occ. eigenvalues --   -1.00226  -0.99451  -0.94738  -0.83925  -0.83503
 Alpha  occ. eigenvalues --   -0.83248  -0.75226  -0.68224  -0.65943  -0.65122
 Alpha  occ. eigenvalues --   -0.64881  -0.61205  -0.59337  -0.58858  -0.56817
 Alpha  occ. eigenvalues --   -0.55816  -0.54360  -0.52728  -0.51984  -0.51874
 Alpha  occ. eigenvalues --   -0.50615  -0.50390  -0.49347  -0.48406  -0.46919
 Alpha  occ. eigenvalues --   -0.46036  -0.43069  -0.42035  -0.41253  -0.40563
 Alpha  occ. eigenvalues --   -0.40550
 Alpha virt. eigenvalues --    0.12661   0.15296   0.16045   0.16868   0.17448
 Alpha virt. eigenvalues --    0.18400   0.18896   0.19474   0.19619   0.20769
 Alpha virt. eigenvalues --    0.21595   0.22793   0.23569   0.24011   0.24446

 Mulliken atomic charges:
              1
     1  C   -0.228878
     2  C   -0.261612
     3  C   -0.053588
     4  C    0.059264
     5  C   -0.226737
     6  C   -0.256797
     7  C   -0.226737
     8  C   -0.256797
     9  C    0.121853
    10  C   -0.299449
    11  Cl  -0.270879
    12  C   -0.299449
    13  H    0.110120
    14  H    0.110120
    15  H    0.118436
    16  H    0.118436
    17  H    0.106640
    18  H    0.110488
    19  H    0.108025
    20  H    0.138667
    21  H    0.110290
    22  H    0.108025
    23  H    0.110488
    24  H    0.110290
    25  H    0.138667
    26  H    0.125562
    27  H    0.102110
    28  H    0.122884
    29  H    0.125562
    30  H    0.122884
    31  H    0.102110
 Sum of Mulliken atomic charges =   0.00000

 Dipole moment (field-independent basis, Debye):
    X=             -2.4974    Y=             -0.0383    Z=              0.0000  Tot=              2.4977
 Quadrupole moment (field-independent basis, Debye-Ang):
   XX=            -89.8293   YY=            -82.1849   ZZ=            -82.7245
   XY=             -3.2868   XZ=              0.0000   YZ=              0.0000

 Normal termination of Gaussian 09 at Thu Jul  5 18:33:24 2018.
