 Gaussian 09, Revision A.01,
 Gaussian 09:  EM64L-G09RevA.01  8-May-2009

 -------------
 # mp2/cc-pVTZ
 -------------

 --------------
 butane-ecl.hin
 --------------
 Symbolic Z-matrix:
 Charge =  0 Multiplicity = 1

                         Standard orientation:
 ---------------------------------------------------------------------
 Center     Atomic      Atomic             Coordinates (Angstroms)
 Number     Number       Type             X           Y           Z
 ---------------------------------------------------------------------
      1          6           0        1.455597   -0.650020   -0.000002
      2          6           0        0.771656    0.723336    0.000000
      3          6           0       -0.771650    0.723333    0.000000
      4          6           0       -1.455603   -0.650017    0.000001
      5          1           0        2.565046   -0.539153   -0.000078
      6          1           0        1.189015   -1.241250    0.905620
      7          1           0        1.188886   -1.241328   -0.905530
      8          1           0        1.137562    1.290917    0.889593
      9          1           0        1.137546    1.290902   -0.889610
     10          1           0       -1.137543    1.290905    0.889617
     11          1           0       -1.137560    1.290923   -0.889594
     12          1           0       -2.565048   -0.539137    0.000078
     13          1           0       -1.189018   -1.241246   -0.905616
     14          1           0       -1.188891   -1.241330    0.905529
 ---------------------------------------------------------------------

 SCF Done:  E(RHF) =  -157.339399173     A.U. after   10 cycles
 E2 =    -0.7212623055D+00 EUMP2 =    -0.15806066147880D+03

 The electronic state is 1-A.
 Alpha  occ. eigenvalues --  -11.22266 -11.22210 -11.21756 -11.21756  -1.06169
 Alpha  occ. eigenvalues --   -0.96736  -0.87115  -0.75892  -0.62918  -0.60760
 Alpha  occ. eigenvalues --   -0.55839  -0.53600  -0.51710  -0.50948  -0.45884
 Alpha  occ. eigenvalues --   -0.45815  -0.43824
 Alpha virt. eigenvalues --    0.13435   0.16912   0.17423   0.17895   0.21071
 Alpha virt. eigenvalues --    0.21538   0.21934   0.24416   0.25324   0.30214
 Alpha virt. eigenvalues --    0.31126   0.35884   0.37022   0.38833   0.40798

 Mulliken atomic charges:
              1
     1  C   -0.283263
     2  C   -0.155803
     3  C   -0.155799
     4  C   -0.283261
     5  H    0.100868
     6  H    0.084413
     7  H    0.084417
     8  H    0.084686
     9  H    0.084683
    10  H    0.084678
    11  H    0.084683
    12  H    0.100870
    13  H    0.084414
    14  H    0.084415
 Sum of Mulliken atomic charges =   0.00000

 Dipole moment (field-independent basis, Debye):
    X=              0.0000    Y=              0.0764    Z=              0.0000  Tot=              0.0764
 Quadrupole moment (field-independent basis, Debye-Ang):
   XX=            -29.2891   YY=            -29.5414   ZZ=            -28.1337
   XY=              0.0000   XZ=              0.0000   YZ=              0.0000

 Normal termination of Gaussian 09 at Sat Jun  4 22:40:46 2016.
