 Gaussian 09, Revision A.01,
 Gaussian 09:  EM64L-G09RevA.01  8-May-2009

 -------------
 # mp2/cc-pVTZ
 -------------

 ---------------
 butane-anti.hin
 ---------------
 Symbolic Z-matrix:
 Charge =  0 Multiplicity = 1

                         Standard orientation:
 ---------------------------------------------------------------------
 Center     Atomic      Atomic             Coordinates (Angstroms)
 Number     Number       Type             X           Y           Z
 ---------------------------------------------------------------------
      1          6           0        1.951063   -0.123461    0.000000
      2          6           0        0.560571    0.525400    0.000000
      3          6           0       -0.560576   -0.525398    0.000000
      4          6           0       -1.951059    0.123459    0.000000
      5          1           0        2.753540    0.650319    0.000000
      6          1           0        2.096624   -0.762325    0.901420
      7          1           0        2.096624   -0.762325   -0.901420
      8          1           0        0.459683    1.179138    0.899230
      9          1           0        0.459683    1.179138   -0.899220
     10          1           0       -0.459683   -1.179127   -0.899230
     11          1           0       -0.459679   -1.179140    0.899220
     12          1           0       -2.753536   -0.650321    0.000000
     13          1           0       -2.096624    0.762314    0.901430
     14          1           0       -2.096629    0.762328   -0.901420
 ---------------------------------------------------------------------

 SCF Done:  E(RHF) =  -157.349900257     A.U. after   10 cycles
 E2 =    -0.7199495967D+00 EUMP2 =    -0.15806984985375D+03

 The electronic state is 1-A.
 Alpha  occ. eigenvalues --  -11.22316 -11.22257 -11.21777 -11.21776  -1.06412
 Alpha  occ. eigenvalues --   -0.97286  -0.85124  -0.77947  -0.63276  -0.57843
 Alpha  occ. eigenvalues --   -0.56871  -0.56142  -0.50875  -0.48969  -0.46722
 Alpha  occ. eigenvalues --   -0.46004  -0.45182
 Alpha virt. eigenvalues --    0.14137   0.15805   0.17715   0.17788   0.21207
 Alpha virt. eigenvalues --    0.22266   0.22840   0.24388   0.24774   0.26100
 Alpha virt. eigenvalues --    0.31102   0.31677   0.35766   0.37967   0.40287

 Mulliken atomic charges:
              1
     1  C   -0.276589
     2  C   -0.143249
     3  C   -0.143246
     4  C   -0.276587
     5  H    0.092923
     6  H    0.082339
     7  H    0.082339
     8  H    0.081115
     9  H    0.081120
    10  H    0.081117
    11  H    0.081118
    12  H    0.092923
    13  H    0.082337
    14  H    0.082338
 Sum of Mulliken atomic charges =   0.00000

 Dipole moment (field-independent basis, Debye):
    X=              0.0000    Y=              0.0000    Z=              0.0000  Tot=              0.0000
 Quadrupole moment (field-independent basis, Debye-Ang):
   XX=            -30.0539   YY=            -29.0396   ZZ=            -28.2014
   XY=              0.3779   XZ=              0.0000   YZ=              0.0000

 Normal termination of Gaussian 09 at Sat Jun  4 22:43:01 2016.
