 Gaussian 09, Revision E.01,
 Gaussian 09:  ES64L-G09RevE.01 30-Nov-2015

 -------------
 # mp2/cc-pVTZ
 -------------

 ----------------
 cyclohexane_sofa
 ----------------
 Symbolic Z-matrix:
 Charge =  0 Multiplicity = 1

                         Standard orientation:
 ---------------------------------------------------------------------
 Center     Atomic      Atomic             Coordinates (Angstroms)
 Number     Number       Type             X           Y           Z
 ---------------------------------------------------------------------
      1          6           0        0.003854    1.491868    0.104216
      2          6           0        1.331829    0.718646   -0.010713
      3          6           0        1.234920   -0.792225   -0.251774
      4          6           0       -1.327455    0.725748   -0.010770
      5          6           0       -1.239526   -0.784883   -0.251855
      6          6           0       -0.004073   -1.392275    0.416053
      7          1           0        0.006074    2.106402    1.038375
      8          1           0        0.006599    2.253201   -0.712983
      9          1           0        2.005320    1.180338   -0.772447
     10          1           0        1.866073    0.848605    0.962009
     11          1           0        1.188710   -0.985549   -1.350083
     12          1           0        2.158622   -1.302381    0.114514
     13          1           0       -1.860481    0.858566    0.962192
     14          1           0       -1.998712    1.191970   -0.771953
     15          1           0       -2.165680   -1.291208    0.114739
     16          1           0       -1.193903   -0.979031   -1.350045
     17          1           0       -0.002765   -1.180522    1.511160
     18          1           0       -0.007141   -2.501673    0.283576
 ---------------------------------------------------------------------

 SCF Done:  E(RHF) =  -234.258775934     A.U. after   10 cycles
 E2 =    -0.1045624892D+01 EUMP2 =    -0.23530440082597D+03

 The electronic state is 1-A.
 Alpha  occ. eigenvalues --  -11.21942 -11.21920 -11.21892 -11.21859 -11.21803
 Alpha  occ. eigenvalues --  -11.21786  -1.10325  -0.99530  -0.99452  -0.82772
 Alpha  occ. eigenvalues --   -0.82159  -0.72130  -0.63753  -0.62656  -0.58666
 Alpha  occ. eigenvalues --   -0.57276  -0.52250  -0.51386  -0.51172  -0.48409
 Alpha  occ. eigenvalues --   -0.47146  -0.43005  -0.42136  -0.41774
 Alpha virt. eigenvalues --    0.13028   0.15912   0.16814   0.17163   0.20060
 Alpha virt. eigenvalues --    0.20333   0.20531   0.21313   0.21844   0.24696
 Alpha virt. eigenvalues --    0.26691   0.28152   0.29407   0.33429   0.36520

 Mulliken charges:
               1
     1  C   -0.182901
     2  C   -0.180842
     3  C   -0.172398
     4  C   -0.180615
     5  C   -0.172108
     6  C   -0.173143
     7  H    0.096196
     8  H    0.084577
     9  H    0.097711
    10  H    0.080064
    11  H    0.077404
    12  H    0.096933
    13  H    0.080060
    14  H    0.097682
    15  H    0.096788
    16  H    0.077418
    17  H    0.081144
    18  H    0.096030
 Sum of Mulliken charges =  -0.00000

 Dipole moment (field-independent basis, Debye):
    X=              0.0002    Y=             -0.0100    Z=              0.0105  Tot=              0.0145
 Quadrupole moment (field-independent basis, Debye-Ang):
   XX=            -41.3674   YY=            -41.2277   ZZ=            -39.9522
   XY=              0.0020   XZ=             -0.0001   YZ=             -0.1416

 Normal termination of Gaussian 09 at Fri Jul 27 23:48:30 2018.
