 Gaussian 09, Revision A.01,
 Gaussian 09:  EM64L-G09RevA.01  8-May-2009

 -------------
 # mp2/cc-pVTZ
 -------------

 -----------------
 cyclohexene-b.hin
 -----------------
 Symbolic Z-matrix:
 Charge =  0 Multiplicity = 1

                         Standard orientation:
 ---------------------------------------------------------------------
 Center     Atomic      Atomic             Coordinates (Angstroms)
 Number     Number       Type             X           Y           Z
 ---------------------------------------------------------------------
      1          6           0        0.770671   -1.207490   -0.184121
      2          6           0       -0.771826   -1.206875   -0.183792
      3          6           0       -1.407940    0.088507    0.343176
      4          6           0       -0.669136    1.288203   -0.183337
      5          6           0        1.407976    0.087083    0.343345
      6          6           0        0.670439    1.287561   -0.183202
      7          1           0        1.122959   -1.359712   -1.233302
      8          1           0        1.162516   -2.076658    0.396965
      9          1           0       -1.164104   -2.075358    0.398025
     10          1           0       -1.124661   -1.359526   -1.232725
     11          1           0       -1.374341    0.120223    1.457698
     12          1           0       -2.481231    0.134697    0.040635
     13          1           0       -1.237430    2.172370   -0.519415
     14          1           0        2.481377    0.132281    0.041034
     15          1           0        1.374143    0.118588    1.457865
     16          1           0        1.239668    2.171161   -0.519189
 ---------------------------------------------------------------------

 SCF Done:  E(RHF) =  -233.081234794     A.U. after   11 cycles
 E2 =    -0.1012197503D+01 EUMP2 =    -0.23409343229777D+03

 The electronic state is 1-A.
 Alpha  occ. eigenvalues --  -11.22607 -11.22607 -11.22340 -11.22283 -11.22043
 Alpha  occ. eigenvalues --  -11.21876  -1.11576  -0.99742  -0.99553  -0.84143
 Alpha  occ. eigenvalues --   -0.80308  -0.67894  -0.66316  -0.63635  -0.55573
 Alpha  occ. eigenvalues --   -0.55227  -0.54753  -0.52297  -0.52010  -0.45416
 Alpha  occ. eigenvalues --   -0.45017  -0.42831  -0.33913
 Alpha virt. eigenvalues --    0.13599   0.15416   0.16591   0.17562   0.17797
 Alpha virt. eigenvalues --    0.19578   0.20867   0.21722   0.22457   0.24677
 Alpha virt. eigenvalues --    0.27472   0.29655   0.34717   0.34884   0.39263

 Mulliken atomic charges:
              1
     1  C   -0.169531
     2  C   -0.169542
     3  C   -0.145235
     4  C   -0.201122
     5  C   -0.145222
     6  C   -0.201144
     7  H    0.084457
     8  H    0.091705
     9  H    0.091691
    10  H    0.084467
    11  H    0.093270
    12  H    0.098326
    13  H    0.148146
    14  H    0.098321
    15  H    0.093267
    16  H    0.148145
 Sum of Mulliken atomic charges =   0.00000

 Dipole moment (field-independent basis, Debye):
    X=             -0.0001    Y=             -0.2015    Z=              0.1330  Tot=              0.2414
 Quadrupole moment (field-independent basis, Debye-Ang):
   XX=            -37.6377   YY=            -39.2469   ZZ=            -39.7330
   XY=             -0.0008   XZ=             -0.0001   YZ=             -0.7645

 Normal termination of Gaussian 09 at Sat Jun  4 22:31:15 2016.
