 Gaussian 09, Revision A.01,
 Gaussian 09:  EM64L-G09RevA.01  8-May-2009

 -------------
 # mp2/cc-pVTZ
 -------------

 ------------------------
 cyclohene half chair.hin
 ------------------------
 Symbolic Z-matrix:
 Charge =  0 Multiplicity = 1

                         Standard orientation:
 ---------------------------------------------------------------------
 Center     Atomic      Atomic             Coordinates (Angstroms)
 Number     Number       Type             X           Y           Z
 ---------------------------------------------------------------------
      1          6           0       -1.490890    0.043012   -0.118929
      2          6           0       -0.668543    1.302854   -0.051522
      3          6           0        0.668704    1.302780    0.051469
      4          6           0       -0.690497   -1.186436    0.333469
      5          6           0        0.690373   -1.186464   -0.333562
      6          6           0        1.490879    0.042833    0.119064
      7          1           0       -1.841228   -0.084521   -1.170196
      8          1           0       -2.393007    0.153853    0.528340
      9          1           0       -1.207919    2.264433   -0.107072
     10          1           0        1.208207    2.264302    0.106887
     11          1           0       -1.249782   -2.119624    0.081964
     12          1           0       -0.559467   -1.169558    1.442126
     13          1           0        0.559369   -1.169394   -1.442209
     14          1           0        1.249558   -2.119746   -0.082182
     15          1           0        2.393155    0.153538   -0.528004
     16          1           0        1.840952   -0.084765    1.170416
 ---------------------------------------------------------------------

 SCF Done:  E(RHF) =  -233.092067263     A.U. after   11 cycles
 E2 =    -0.1010717026D+01 EUMP2 =    -0.23410278428900D+03

 The electronic state is 1-A.
 Alpha  occ. eigenvalues --  -11.22621 -11.22620 -11.22324 -11.22264 -11.22247
 Alpha  occ. eigenvalues --  -11.22083  -1.11510  -0.99884  -0.99658  -0.83722
 Alpha  occ. eigenvalues --   -0.80911  -0.69203  -0.65994  -0.60536  -0.58020
 Alpha  occ. eigenvalues --   -0.56104  -0.53450  -0.52634  -0.51970  -0.46402
 Alpha  occ. eigenvalues --   -0.44464  -0.43298  -0.33900
 Alpha virt. eigenvalues --    0.13545   0.16528   0.16759   0.17054   0.18089
 Alpha virt. eigenvalues --    0.20170   0.20440   0.21931   0.22734   0.23804
 Alpha virt. eigenvalues --    0.25376   0.30689   0.33498   0.36009   0.37381

 Mulliken atomic charges:
              1
     1  C   -0.132064
     2  C   -0.199535
     3  C   -0.199534
     4  C   -0.175687
     5  C   -0.175687
     6  C   -0.132065
     7  H    0.090788
     8  H    0.093666
     9  H    0.143127
    10  H    0.143124
    11  H    0.095953
    12  H    0.083750
    13  H    0.083759
    14  H    0.095950
    15  H    0.093667
    16  H    0.090790
 Sum of Mulliken atomic charges =   0.00000

 Dipole moment (field-independent basis, Debye):
    X=              0.0000    Y=             -0.2788    Z=              0.0000  Tot=              0.2788
 Quadrupole moment (field-independent basis, Debye-Ang):
   XX=            -37.8049   YY=            -38.8298   ZZ=            -39.9516
   XY=             -0.0001   XZ=              0.2475   YZ=             -0.0001

 Normal termination of Gaussian 09 at Sat Jun  4 22:38:26 2016.
