 Gaussian 09, Revision A.01,
 Gaussian 09:  EM64L-G09RevA.01  8-May-2009

 -------------
 # mp2/cc-pVTZ
 -------------

 ------------------
 cyclohexene-hc.hin
 ------------------
 Symbolic Z-matrix:
 Charge =  0 Multiplicity = 1

                         Standard orientation:
 ---------------------------------------------------------------------
 Center     Atomic      Atomic             Coordinates (Angstroms)
 Number     Number       Type             X           Y           Z
 ---------------------------------------------------------------------
      1          6           0       -0.690387   -1.186453   -0.333546
      2          6           0        0.690470   -1.186426    0.333511
      3          6           0        1.490892    0.042972   -0.118972
      4          6           0        0.668571    1.302845   -0.051512
      5          6           0       -1.490886    0.042858    0.119027
      6          6           0       -0.668680    1.302782    0.051491
      7          1           0       -1.249582   -2.119724   -0.082193
      8          1           0       -0.559344   -1.169398   -1.442206
      9          1           0        1.249742   -2.119648    0.082092
     10          1           0        0.559424   -1.169456    1.442162
     11          1           0        1.841167   -0.084590   -1.170262
     12          1           0        2.393054    0.153784    0.528240
     13          1           0        1.207972    2.264403   -0.107029
     14          1           0       -1.841047   -0.084746    1.170352
     15          1           0       -2.393116    0.153591   -0.528105
     16          1           0       -1.208150    2.264312    0.106954
 ---------------------------------------------------------------------

 SCF Done:  E(RHF) =  -233.092067080     A.U. after   11 cycles
 E2 =    -0.1010717488D+01 EUMP2 =    -0.23410278456754D+03

 The electronic state is 1-A.
 Alpha  occ. eigenvalues --  -11.22621 -11.22620 -11.22324 -11.22264 -11.22248
 Alpha  occ. eigenvalues --  -11.22083  -1.11510  -0.99884  -0.99658  -0.83722
 Alpha  occ. eigenvalues --   -0.80911  -0.69203  -0.65994  -0.60536  -0.58020
 Alpha  occ. eigenvalues --   -0.56104  -0.53450  -0.52634  -0.51970  -0.46402
 Alpha  occ. eigenvalues --   -0.44464  -0.43298  -0.33900
 Alpha virt. eigenvalues --    0.13545   0.16528   0.16759   0.17054   0.18088
 Alpha virt. eigenvalues --    0.20170   0.20440   0.21931   0.22734   0.23804
 Alpha virt. eigenvalues --    0.25376   0.30689   0.33498   0.36009   0.37381

 Mulliken atomic charges:
              1
     1  C   -0.175684
     2  C   -0.175685
     3  C   -0.132066
     4  C   -0.199542
     5  C   -0.132063
     6  C   -0.199535
     7  H    0.095956
     8  H    0.083748
     9  H    0.095951
    10  H    0.083751
    11  H    0.090788
    12  H    0.093665
    13  H    0.143132
    14  H    0.090789
    15  H    0.093667
    16  H    0.143127
 Sum of Mulliken atomic charges =   0.00000

 Dipole moment (field-independent basis, Debye):
    X=              0.0000    Y=             -0.2788    Z=              0.0000  Tot=              0.2788
 Quadrupole moment (field-independent basis, Debye-Ang):
   XX=            -37.8049   YY=            -38.8298   ZZ=            -39.9517
   XY=              0.0001   XZ=             -0.2475   YZ=             -0.0001

 Normal termination of Gaussian 09 at Sat Jun  4 22:23:37 2016.
