 Gaussian 09, Revision E.01,
 Gaussian 09:  ES64L-G09RevE.01 30-Nov-2015

 -------------
 # mp2/cc-pVTZ
 -------------

 -----------------
 cyclohexane_chair
 -----------------
 Symbolic Z-matrix:
 Charge =  0 Multiplicity = 1

                         Standard orientation:
 ---------------------------------------------------------------------
 Center     Atomic      Atomic             Coordinates (Angstroms)
 Number     Number       Type             X           Y           Z
 ---------------------------------------------------------------------
      1          6           0        0.434821    1.394132   -0.237453
      2          6           0        1.424256    0.320246    0.237446
      3          6           0        0.990197   -1.072927   -0.237386
      4          6           0       -0.990054    1.073197    0.237173
      5          6           0       -1.424862   -0.320440   -0.237188
      6          6           0       -0.434678   -1.393862    0.237240
      7          1           0        0.747035    2.395527    0.145307
      8          1           0        0.451899    1.448343   -1.351577
      9          1           0        2.448188    0.551112   -0.144728
     10          1           0        1.480878    0.332854    1.352208
     11          1           0        1.029464   -1.115423   -1.352148
     12          1           0        1.701128   -1.844999    0.145089
     13          1           0       -1.028681    1.115000    1.352269
     14          1           0       -1.701095    1.844112   -0.144497
     15          1           0       -2.448045   -0.550842    0.144515
     16          1           0       -1.480095   -0.333277   -1.352087
     17          1           0       -0.451867   -1.449230    1.352169
     18          1           0       -0.746892   -2.395256   -0.145519
 ---------------------------------------------------------------------

 SCF Done:  E(RHF) =  -234.279431103     A.U. after    9 cycles
 E2 =    -0.1045509582D+01 EUMP2 =    -0.23532494068422D+03

 The electronic state is 1-A.
 Alpha  occ. eigenvalues --  -11.21964 -11.21936 -11.21934 -11.21876 -11.21874
 Alpha  occ. eigenvalues --  -11.21844  -1.10752  -0.99382  -0.99362  -0.81843
 Alpha  occ. eigenvalues --   -0.81826  -0.74193  -0.64036  -0.59730  -0.58988
 Alpha  occ. eigenvalues --   -0.58983  -0.51879  -0.51860  -0.50925  -0.47652
 Alpha  occ. eigenvalues --   -0.47638  -0.44906  -0.42139  -0.42111
 Alpha virt. eigenvalues --    0.13988   0.15431   0.16673   0.16675   0.20843
 Alpha virt. eigenvalues --    0.20844   0.21079   0.22602   0.22603   0.23375
 Alpha virt. eigenvalues --    0.25019   0.25021   0.30092   0.33920   0.33929

 Mulliken charges:
               1
     1  C   -0.179072
     2  C   -0.178571
     3  C   -0.178631
     4  C   -0.178864
     5  C   -0.178840
     6  C   -0.178899
     7  H    0.098016
     8  H    0.081150
     9  H    0.097688
    10  H    0.080887
    11  H    0.080886
    12  H    0.097774
    13  H    0.080562
    14  H    0.098248
    15  H    0.098291
    16  H    0.080635
    17  H    0.080774
    18  H    0.097965
 Sum of Mulliken charges =  -0.00000

 Dipole moment (field-independent basis, Debye):
    X=             -0.0014    Y=              0.0006    Z=             -0.0011  Tot=              0.0019
 Quadrupole moment (field-independent basis, Debye-Ang):
   XX=            -41.2776   YY=            -41.2762   ZZ=            -40.1417
   XY=              0.0013   XZ=             -0.0001   YZ=             -0.0005

 Normal termination of Gaussian 09 at Fri Jul 27 23:48:28 2018.
