 Gaussian 09, Revision A.01,
 Gaussian 09:  EM64L-G09RevA.01  8-May-2009

 -------------
 # mp2/cc-pVTZ
 -------------

 --------------------
 cyclohexene boat.hin
 --------------------
 Symbolic Z-matrix:
 Charge =  0 Multiplicity = 1

                         Standard orientation:
 ---------------------------------------------------------------------
 Center     Atomic      Atomic             Coordinates (Angstroms)
 Number     Number       Type             X           Y           Z
 ---------------------------------------------------------------------
      1          6           0       -1.407988    0.087788    0.343234
      2          6           0       -0.669789    1.287883   -0.183248
      3          6           0        0.669790    1.287883   -0.183244
      4          6           0       -0.771245   -1.207175   -0.183945
      5          6           0        0.771241   -1.207178   -0.183936
      6          6           0        1.407991    0.087790    0.343225
      7          1           0       -2.481318    0.133487    0.040739
      8          1           0       -1.374338    0.119409    1.457752
      9          1           0       -1.238546    2.171761   -0.519280
     10          1           0        1.238530    2.171769   -0.519283
     11          1           0       -1.123804   -1.359639   -1.233001
     12          1           0       -1.163310   -2.075989    0.397523
     13          1           0        1.123824   -1.359668   -1.232983
     14          1           0        1.163303   -2.075982    0.397551
     15          1           0        2.481314    0.133493    0.040725
     16          1           0        1.374347    0.119415    1.457751
 ---------------------------------------------------------------------

 SCF Done:  E(RHF) =  -233.081234823     A.U. after   11 cycles
 E2 =    -0.1012196846D+01 EUMP2 =    -0.23409343166913D+03

 The electronic state is 1-A.
 Alpha  occ. eigenvalues --  -11.22607 -11.22607 -11.22339 -11.22283 -11.22043
 Alpha  occ. eigenvalues --  -11.21876  -1.11576  -0.99742  -0.99553  -0.84143
 Alpha  occ. eigenvalues --   -0.80309  -0.67894  -0.66316  -0.63635  -0.55573
 Alpha  occ. eigenvalues --   -0.55227  -0.54753  -0.52298  -0.52010  -0.45416
 Alpha  occ. eigenvalues --   -0.45017  -0.42831  -0.33913
 Alpha virt. eigenvalues --    0.13598   0.15416   0.16591   0.17562   0.17797
 Alpha virt. eigenvalues --    0.19578   0.20867   0.21723   0.22457   0.24677
 Alpha virt. eigenvalues --    0.27472   0.29655   0.34717   0.34885   0.39263

 Mulliken atomic charges:
              1
     1  C   -0.145227
     2  C   -0.201137
     3  C   -0.201138
     4  C   -0.169533
     5  C   -0.169533
     6  C   -0.145224
     7  H    0.098320
     8  H    0.093271
     9  H    0.148148
    10  H    0.148148
    11  H    0.084461
    12  H    0.091697
    13  H    0.084460
    14  H    0.091696
    15  H    0.098324
    16  H    0.093267
 Sum of Mulliken atomic charges =   0.00000

 Dipole moment (field-independent basis, Debye):
    X=              0.0000    Y=             -0.2015    Z=              0.1329  Tot=              0.2414
 Quadrupole moment (field-independent basis, Debye-Ang):
   XX=            -37.6375   YY=            -39.2471   ZZ=            -39.7329
   XY=              0.0000   XZ=              0.0000   YZ=             -0.7646

 Normal termination of Gaussian 09 at Sat Jun  4 22:54:05 2016.
