 Gaussian 09, Revision E.01,
 Gaussian 09:  ES64L-G09RevE.01 30-Nov-2015

 -----------------
 # opt mp2/cc-pVTZ
 -----------------

 -------------------
 dimethylphosphine_a
 -------------------
 Symbolic Z-matrix:
 Charge =  0 Multiplicity = 1

 SCF Done:  E(RHF) =  -420.592518692     A.U. after   11 cycles
 E2 =    -0.5190620520D+00 EUMP2 =    -0.42111158074422D+03
 SCF Done:  E(RHF) =  -420.592017767     A.U. after    9 cycles
 E2 =    -0.5198468268D+00 EUMP2 =    -0.42111186459393D+03
 SCF Done:  E(RHF) =  -420.592170881     A.U. after    8 cycles
 E2 =    -0.5197281045D+00 EUMP2 =    -0.42111189898509D+03
 SCF Done:  E(RHF) =  -420.592167059     A.U. after    7 cycles
 E2 =    -0.5197352120D+00 EUMP2 =    -0.42111190227056D+03
 SCF Done:  E(RHF) =  -420.592153170     A.U. after    6 cycles
 E2 =    -0.5197497607D+00 EUMP2 =    -0.42111190293020D+03
 Optimization completed.
    -- Stationary point found.

                         Standard orientation:
 ---------------------------------------------------------------------
 Center     Atomic      Atomic             Coordinates (Angstroms)
 Number     Number       Type             X           Y           Z
 ---------------------------------------------------------------------
      1         15           0        0.000000   -0.661143   -0.111519
      2          6           0        1.409175    0.531692    0.021664
      3          6           0       -1.409175    0.531692    0.021664
      4          1           0        0.000000   -1.079580    1.239212
      5          1           0        2.341376   -0.015836    0.146290
      6          1           0        1.477530    1.094678   -0.907873
      7          1           0        1.290876    1.229366    0.848386
      8          1           0       -2.341376   -0.015836    0.146290
      9          1           0       -1.290876    1.229366    0.848385
     10          1           0       -1.477530    1.094678   -0.907873
 ---------------------------------------------------------------------

 The electronic state is 1-A.
 Alpha  occ. eigenvalues --  -79.93020 -11.22109 -11.22108  -7.47189  -5.36573
 Alpha  occ. eigenvalues --   -5.36546  -5.36446  -1.00181  -0.93587  -0.75026
 Alpha  occ. eigenvalues --   -0.59287  -0.58506  -0.55561  -0.55263  -0.47214
 Alpha  occ. eigenvalues --   -0.45980  -0.34304
 Alpha virt. eigenvalues --    0.12924   0.14613   0.18529   0.19125   0.19886
 Alpha virt. eigenvalues --    0.21997   0.23292   0.23776   0.25528   0.34840
 Alpha virt. eigenvalues --    0.35172   0.35715   0.39990   0.40606   0.42373

 Mulliken charges:
               1
     1  P    0.087641
     2  C   -0.340908
     3  C   -0.340908
     4  H   -0.009396
     5  H    0.106858
     6  H    0.098160
     7  H    0.096767
     8  H    0.106858
     9  H    0.096767
    10  H    0.098160
 Sum of Mulliken charges =  -0.00000

 Dipole moment (field-independent basis, Debye):
    X=             -0.0000    Y=              1.1854    Z=              0.5876  Tot=              1.3231
 Quadrupole moment (field-independent basis, Debye-Ang):
   XX=            -27.2572   YY=            -30.4249   ZZ=            -29.0120
   XY=              0.0000   XZ=             -0.0000   YZ=             -1.6573

 Normal termination of Gaussian 09 at Sun Jul 15 21:20:03 2018.
