 Gaussian 09, Revision E.01,
 Gaussian 09:  ES64L-G09RevE.01 30-Nov-2015

 ------------------------------
 # opt=modredundant mp2/cc-pVTZ
 ------------------------------

 ---------------
 diMe-sulfone-ts
 ---------------
 Symbolic Z-matrix:
 Charge =  0 Multiplicity = 1

 SCF Done:  E(RHF) =  -626.534450832     A.U. after   12 cycles
 E2 =    -0.1023829049D+01 EUMP2 =    -0.62755827988044D+03
 SCF Done:  E(RHF) =  -626.538903100     A.U. after   10 cycles
 E2 =    -0.1021204390D+01 EUMP2 =    -0.62756010749012D+03
 SCF Done:  E(RHF) =  -626.540105850     A.U. after    9 cycles
 E2 =    -0.1020116779D+01 EUMP2 =    -0.62756022262868D+03
 SCF Done:  E(RHF) =  -626.540055612     A.U. after    8 cycles
 E2 =    -0.1020174124D+01 EUMP2 =    -0.62756022973593D+03
 Optimization completed.
    -- Stationary point found.

                         Standard orientation:
 ---------------------------------------------------------------------
 Center     Atomic      Atomic             Coordinates (Angstroms)
 Number     Number       Type             X           Y           Z
 ---------------------------------------------------------------------
      1          6           0       -1.352869    0.974531   -0.004729
      2         16           0       -0.008863   -0.190677   -0.000167
      3          6           0        1.453383    0.850223    0.008867
      4          8           0       -0.058206   -0.912008    1.260243
      5          8           0       -0.041225   -0.908288   -1.263204
      6          1           0       -1.305475    1.574054   -0.908876
      7          1           0       -1.299475    1.586074    0.891168
      8          1           0        2.062953    0.548978   -0.836880
      9          1           0        1.164869    1.892329   -0.097306
     10          1           0        1.968194    0.691992    0.950391
     11          1           0       -2.256900    0.371236    0.003031
 ---------------------------------------------------------------------

 The electronic state is 1-A.
 Alpha  occ. eigenvalues --  -92.17676 -20.53720 -20.53690 -11.27571 -11.27441
 Alpha  occ. eigenvalues --   -9.14784  -6.83248  -6.83200  -6.83194  -1.44395
 Alpha  occ. eigenvalues --   -1.33125  -1.07113  -1.00817  -0.81491  -0.68375
 Alpha  occ. eigenvalues --   -0.67075  -0.66159  -0.61961  -0.61896  -0.59336
 Alpha  occ. eigenvalues --   -0.57750  -0.49168  -0.48923  -0.46431  -0.43966
 Alpha virt. eigenvalues --    0.11811   0.16726   0.17428   0.18709   0.19401
 Alpha virt. eigenvalues --    0.20218   0.21194   0.25840   0.27289   0.27568
 Alpha virt. eigenvalues --    0.35561   0.37565   0.38592   0.39832   0.41082

 Mulliken charges:
               1
     1  C   -0.294659
     2  S    0.991922
     3  C   -0.310784
     4  O   -0.569375
     5  O   -0.569480
     6  H    0.116733
     7  H    0.117492
     8  H    0.138877
     9  H    0.105910
    10  H    0.138667
    11  H    0.134696
 Sum of Mulliken charges =  -0.00000

 Dipole moment (field-independent basis, Debye):
    X=              0.2781    Y=              5.1471    Z=              0.0035  Tot=              5.1546
 Quadrupole moment (field-independent basis, Debye-Ang):
   XX=            -31.3708   YY=            -38.5352   ZZ=            -44.0024
   XY=             -0.3232   XZ=              0.0653   YZ=              0.0086

 Normal termination of Gaussian 09 at Sun Jul 15 21:21:58 2018.
