 Gaussian 09, Revision E.01,
 Gaussian 09:  ES64L-G09RevE.01 30-Nov-2015

 -------------
 # mp2/cc-pVTZ
 -------------

 ------------
 diMe-sulfone
 ------------
 Symbolic Z-matrix:
 Charge =  0 Multiplicity = 1

                         Standard orientation:
 ---------------------------------------------------------------------
 Center     Atomic      Atomic             Coordinates (Angstroms)
 Number     Number       Type             X           Y           Z
 ---------------------------------------------------------------------
      1          6           0        1.402648   -0.901646   -0.000000
      2         16           0       -0.000010    0.183074    0.000000
      3          6           0       -1.402614   -0.901717    0.000000
      4          8           0       -0.000010    0.903986    1.244820
      5          8           0       -0.000010    0.903986   -1.244820
      6          1           0        1.389254   -1.510394   -0.893764
      7          1           0        1.389254   -1.510394    0.893764
      8          1           0       -2.278047   -0.265588    0.000000
      9          1           0       -1.389197   -1.510461   -0.893768
     10          1           0       -1.389197   -1.510461    0.893768
     11          1           0        2.278058   -0.265476   -0.000000
 ---------------------------------------------------------------------

 SCF Done:  E(RHF) =  -626.546406869     A.U. after   12 cycles
 E2 =    -0.1017055056D+01 EUMP2 =    -0.62756346192490D+03

 The electronic state is 1-A'.
 Alpha  occ. eigenvalues --  -92.17354 -20.53488 -20.53486 -11.27259 -11.27258
 Alpha  occ. eigenvalues --   -9.14530  -6.82990  -6.82961  -6.82951  -1.45333
 Alpha  occ. eigenvalues --   -1.33709  -1.07332  -1.01217  -0.81350  -0.68896
 Alpha  occ. eigenvalues --   -0.67536  -0.66584  -0.61686  -0.61430  -0.59713
 Alpha  occ. eigenvalues --   -0.58203  -0.49584  -0.49297  -0.46561  -0.44126
 Alpha virt. eigenvalues --    0.11926   0.16604   0.16697   0.17740   0.21167
 Alpha virt. eigenvalues --    0.21729   0.22880   0.26700   0.27688   0.28149
 Alpha virt. eigenvalues --    0.34065   0.38129   0.38182   0.39413   0.39533

 Mulliken charges:
               1
     1  C   -0.292444
     2  S    0.984767
     3  C   -0.292443
     4  O   -0.567920
     5  O   -0.567920
     6  H    0.116111
     7  H    0.116111
     8  H    0.135756
     9  H    0.116113
    10  H    0.116113
    11  H    0.135756
 Sum of Mulliken charges =  -0.00000

 Dipole moment (field-independent basis, Debye):
    X=             -0.0000    Y=             -5.0852    Z=             -0.0000  Tot=              5.0852
 Quadrupole moment (field-independent basis, Debye-Ang):
   XX=            -31.0968   YY=            -38.4901   ZZ=            -43.8746
   XY=              0.0002   XZ=             -0.0000   YZ=             -0.0000

 Normal termination of Gaussian 09 at Tue Jul 10 16:37:24 2018.
