 Gaussian 09, Revision E.01,
 Gaussian 09:  ES64L-G09RevE.01 30-Nov-2015

 ------------------------------
 # opt=modredundant mp2/cc-pVTZ
 ------------------------------

 ---------------------
 dimethylphosphine-ecl
 ---------------------
 Symbolic Z-matrix:
 Charge =  0 Multiplicity = 1

 SCF Done:  E(RHF) =  -420.548095074     A.U. after   13 cycles
 E2 =    -0.5214735135D+00 EUMP2 =    -0.42106956858717D+03
 SCF Done:  E(RHF) =  -420.578283328     A.U. after   11 cycles
 E2 =    -0.5186322844D+00 EUMP2 =    -0.42109691561258D+03
 SCF Done:  E(RHF) =  -420.587982548     A.U. after   10 cycles
 E2 =    -0.5201715770D+00 EUMP2 =    -0.42110815412516D+03
 SCF Done:  E(RHF) =  -420.590157241     A.U. after   10 cycles
 E2 =    -0.5197016153D+00 EUMP2 =    -0.42110985885644D+03
 SCF Done:  E(RHF) =  -420.590168104     A.U. after    9 cycles
 E2 =    -0.5199547792D+00 EUMP2 =    -0.42111012288322D+03
 SCF Done:  E(RHF) =  -420.590225620     A.U. after    8 cycles
 E2 =    -0.5199144676D+00 EUMP2 =    -0.42111014008734D+03
 SCF Done:  E(RHF) =  -420.590202258     A.U. after    8 cycles
 E2 =    -0.5199410053D+00 EUMP2 =    -0.42111014326370D+03
 SCF Done:  E(RHF) =  -420.590197809     A.U. after    6 cycles
 E2 =    -0.5199455858D+00 EUMP2 =    -0.42111014339489D+03
 Optimization completed.
    -- Stationary point found.

                         Standard orientation:
 ---------------------------------------------------------------------
 Center     Atomic      Atomic             Coordinates (Angstroms)
 Number     Number       Type             X           Y           Z
 ---------------------------------------------------------------------
      1         15           0        0.003016   -0.666129   -0.111720
      2          6           0        1.404801    0.539422    0.020579
      3          6           0       -1.413954    0.529101    0.022177
      4          1           0        0.036292   -1.068096    1.242916
      5          1           0        2.336473   -0.000982    0.177099
      6          1           0        1.488589    1.082092   -0.919495
      7          1           0        1.267952    1.254071    0.829803
      8          1           0       -2.324585    0.063364   -0.348744
      9          1           0       -1.592618    0.857236    1.042947
     10          1           0       -1.202415    1.393106   -0.605258
 ---------------------------------------------------------------------

 The electronic state is 1-A.
 Alpha  occ. eigenvalues --  -79.93053 -11.22078 -11.22062  -7.47210  -5.36592
 Alpha  occ. eigenvalues --   -5.36565  -5.36465  -1.00083  -0.93501  -0.75063
 Alpha  occ. eigenvalues --   -0.59437  -0.58227  -0.55487  -0.55222  -0.47099
 Alpha  occ. eigenvalues --   -0.45916  -0.34315
 Alpha virt. eigenvalues --    0.12807   0.14600   0.17800   0.19303   0.20623
 Alpha virt. eigenvalues --    0.21616   0.23022   0.24264   0.24929   0.35221
 Alpha virt. eigenvalues --    0.35720   0.37199   0.38950   0.40706   0.42491

 Mulliken charges:
               1
     1  P    0.089340
     2  C   -0.344088
     3  C   -0.347846
     4  H   -0.007198
     5  H    0.106954
     6  H    0.097803
     7  H    0.097141
     8  H    0.107512
     9  H    0.105287
    10  H    0.095095
 Sum of Mulliken charges =  -0.00000

 Dipole moment (field-independent basis, Debye):
    X=             -0.0312    Y=              1.1843    Z=              0.6025  Tot=              1.3291
 Quadrupole moment (field-independent basis, Debye-Ang):
   XX=            -27.3383   YY=            -30.4257   ZZ=            -28.9518
   XY=             -0.0027   XZ=             -0.0031   YZ=             -1.6446

 Normal termination of Gaussian 09 at Sun Jul 15 21:21:30 2018.
