 Gaussian 09, Revision A.01,
 Gaussian 09:  EM64L-G09RevA.01  8-May-2009

 -------------
 # mp2/cc-pVTZ
 -------------

 -----------------------
 dimethilsulfide-ecl.hin
 -----------------------
 Symbolic Z-matrix:
 Charge =  0 Multiplicity = 1

                         Standard orientation:
 ---------------------------------------------------------------------
 Center     Atomic      Atomic             Coordinates (Angstroms)
 Number     Number       Type             X           Y           Z
 ---------------------------------------------------------------------
      1          6           0       -1.504201    0.421974    0.000000
      2         16           0        0.000398   -0.551707    0.000000
      3          6           0        1.504070    0.422654    0.000000
      4          1           0       -2.104540    0.185701    0.906800
      5          1           0       -1.256759    1.507096    0.000003
      6          1           0       -2.104541    0.185704   -0.906799
      7          1           0        1.535644    1.066623    0.907203
      8          1           0        2.388963   -0.252219   -0.000004
      9          1           0        1.535651    1.066636   -0.907195
 ---------------------------------------------------------------------

 SCF Done:  E(RHF) =  -476.787760681     A.U. after   11 cycles
 E2 =    -0.5389713672D+00 EUMP2 =    -0.47732673204828D+03

 The electronic state is 1-A.
 Alpha  occ. eigenvalues --  -91.93339 -11.26007 -11.25953  -8.93590  -6.61741
 Alpha  occ. eigenvalues --   -6.61645  -6.61549  -1.05537  -0.95266  -0.79585
 Alpha  occ. eigenvalues --   -0.59577  -0.59228  -0.57250  -0.56482  -0.51634
 Alpha  occ. eigenvalues --   -0.40689  -0.32696
 Alpha virt. eigenvalues --    0.13174   0.15616   0.19007   0.20659   0.20692
 Alpha virt. eigenvalues --    0.21061   0.21860   0.28016   0.35398   0.36647
 Alpha virt. eigenvalues --    0.38489   0.39730   0.41013   0.42710   0.45938

 Mulliken atomic charges:
              1
     1  C   -0.239092
     2  S   -0.141003
     3  C   -0.239667
     4  H    0.109141
     5  H    0.094056
     6  H    0.109142
     7  H    0.096080
     8  H    0.115265
     9  H    0.096079
 Sum of Mulliken atomic charges =   0.00000

 Dipole moment (field-independent basis, Debye):
    X=              0.0113    Y=              1.7817    Z=              0.0000  Tot=              1.7817
 Quadrupole moment (field-independent basis, Debye-Ang):
   XX=            -23.5976   YY=            -28.9775   ZZ=            -28.7748
   XY=             -0.1770   XZ=              0.0000   YZ=              0.0000

 Normal termination of Gaussian 09 at Sat Jun  4 22:16:23 2016.
