 Gaussian 09, Revision A.01,
 Gaussian 09:  EM64L-G09RevA.01  8-May-2009

 -------------
 # mp2/cc-pVTZ
 -------------

 -------------------------
 dimethylphosphine-ecl.hin
 -------------------------
 Symbolic Z-matrix:
 Charge =  0 Multiplicity = 1

                         Standard orientation:
 ---------------------------------------------------------------------
 Center     Atomic      Atomic             Coordinates (Angstroms)
 Number     Number       Type             X           Y           Z
 ---------------------------------------------------------------------
      1         15           0       -0.000558   -0.563884   -0.094197
      2          6           0        1.559569    0.496625    0.033632
      3          6           0       -1.556741    0.499367    0.029998
      4          1           0       -0.013805   -1.797075    0.643107
      5          1           0        2.460352   -0.115622   -0.195008
      6          1           0        1.510177    1.342379   -0.688104
      7          1           0        1.659384    0.909533    1.062275
      8          1           0       -2.197989    0.367650   -0.869970
      9          1           0       -2.141248    0.203319    0.929594
     10          1           0       -1.285468    1.572124    0.149283
 ---------------------------------------------------------------------

 SCF Done:  E(RHF) =  -420.548108310     A.U. after   12 cycles
 E2 =    -0.5214702452D+00 EUMP2 =    -0.42106957855500D+03

 The electronic state is 1-A.
 Alpha  occ. eigenvalues --  -79.92600 -11.24605 -11.24456  -7.46732  -5.36214
 Alpha  occ. eigenvalues --   -5.36187  -5.36168  -0.98206  -0.93344  -0.74459
 Alpha  occ. eigenvalues --   -0.58204  -0.57207  -0.55522  -0.55384  -0.49725
 Alpha  occ. eigenvalues --   -0.46721  -0.28039
 Alpha virt. eigenvalues --    0.13062   0.14940   0.15702   0.19453   0.20602
 Alpha virt. eigenvalues --    0.21104   0.22086   0.24734   0.26521   0.32527
 Alpha virt. eigenvalues --    0.35784   0.37511   0.38096   0.39790   0.42601

 Mulliken atomic charges:
              1
     1  P   -0.049524
     2  C   -0.306373
     3  C   -0.310760
     4  H    0.032886
     5  H    0.110375
     6  H    0.107539
     7  H    0.096268
     8  H    0.118614
     9  H    0.101483
    10  H    0.099492
 Sum of Mulliken atomic charges =   0.00000

 Dipole moment (field-independent basis, Debye):
    X=             -0.0082    Y=              1.0668    Z=              1.1155  Tot=              1.5435
 Quadrupole moment (field-independent basis, Debye-Ang):
   XX=            -26.3150   YY=            -28.3720   ZZ=            -31.0498
   XY=             -0.0196   XZ=             -0.1108   YZ=             -2.1284

 Normal termination of Gaussian 09 at Sat Jun  4 22:10:53 2016.
