 Gaussian 09, Revision A.01,
 Gaussian 09:  EM64L-G09RevA.01  8-May-2009

 -------------
 # mp2/cc-pVTZ
 -------------

 ---------------------
 Dimethylether-ecl.hin
 ---------------------
 Symbolic Z-matrix:
 Charge =  0 Multiplicity = 1

                         Standard orientation:
 ---------------------------------------------------------------------
 Center     Atomic      Atomic             Coordinates (Angstroms)
 Number     Number       Type             X           Y           Z
 ---------------------------------------------------------------------
      1          6           0        1.194093    0.191537    0.000000
      2          8           0        0.003485   -0.559003   -0.000001
      3          6           0       -1.194129    0.186800   -0.000001
      4          1           0        2.042406   -0.529727    0.000002
      5          1           0        1.236163    0.815991   -0.922069
      6          1           0        1.236157    0.815984    0.922075
      7          1           0       -1.772778   -0.091797   -0.909950
      8          1           0       -1.772790   -0.091811    0.909948
      9          1           0       -0.996818    1.283366    0.000008
 ---------------------------------------------------------------------

 SCF Done:  E(RHF) =  -154.118856352     A.U. after   10 cycles
 E2 =    -0.5981018629D+00 EUMP2 =    -0.15471695821507D+03

 The electronic state is 1-A.
 Alpha  occ. eigenvalues --  -20.54580 -11.27586 -11.27460  -1.36699  -0.96405
 Alpha  occ. eigenvalues --   -0.86067  -0.65237  -0.64519  -0.63012  -0.55469
 Alpha  occ. eigenvalues --   -0.52180  -0.47102  -0.41292
 Alpha virt. eigenvalues --    0.13980   0.17734   0.21298   0.21865   0.22115
 Alpha virt. eigenvalues --    0.22418   0.24532   0.31695   0.39342   0.39970
 Alpha virt. eigenvalues --    0.41681   0.45537   0.55326   0.56450   0.60365

 Mulliken atomic charges:
              1
     1  C   -0.030295
     2  O   -0.356573
     3  C   -0.023282
     4  H    0.094776
     5  H    0.054126
     6  H    0.054125
     7  H    0.078830
     8  H    0.078826
     9  H    0.049466
 Sum of Mulliken atomic charges =   0.00000

 Dipole moment (field-independent basis, Debye):
    X=              0.0201    Y=              1.3974    Z=              0.0000  Tot=              1.3976
 Quadrupole moment (field-independent basis, Debye-Ang):
   XX=            -17.5750   YY=            -21.2288   ZZ=            -19.9186
   XY=             -0.1746   XZ=              0.0000   YZ=              0.0000

 Normal termination of Gaussian 09 at Sat Jun  4 22:14:15 2016.
