 Gaussian 09, Revision A.01,
 Gaussian 09:  EM64L-G09RevA.01  8-May-2009

 -------------
 # mp2/cc-pVTZ
 -------------

 -----------------------
 dimethylphosphine-a.hin
 -----------------------
 Symbolic Z-matrix:
 Charge =  0 Multiplicity = 1

                         Standard orientation:
 ---------------------------------------------------------------------
 Center     Atomic      Atomic             Coordinates (Angstroms)
 Number     Number       Type             X           Y           Z
 ---------------------------------------------------------------------
      1         15           0       -0.000001    0.569475   -0.102468
      2          6           0       -1.548451   -0.499506    0.036737
      3          6           0        1.548452   -0.499506    0.036740
      4          1           0        0.000005    1.758065    0.704865
      5          1           0       -2.457171    0.110594   -0.164560
      6          1           0       -1.508044   -1.333062   -0.699576
      7          1           0       -1.626852   -0.930591    1.059792
      8          1           0        2.457178    0.110596   -0.164570
      9          1           0        1.626855   -0.930592    1.059785
     10          1           0        1.508040   -1.333066   -0.699582
 ---------------------------------------------------------------------

 SCF Done:  E(RHF) =  -420.555849379     A.U. after   12 cycles
 E2 =    -0.5206421917D+00 EUMP2 =    -0.42107649157039D+03

 The electronic state is 1-A.
 Alpha  occ. eigenvalues --  -79.92767 -11.24448 -11.24447  -7.46881  -5.36345
 Alpha  occ. eigenvalues --   -5.36317  -5.36292  -0.98347  -0.93379  -0.74520
 Alpha  occ. eigenvalues --   -0.58244  -0.57282  -0.55644  -0.55273  -0.49727
 Alpha  occ. eigenvalues --   -0.46831  -0.28568
 Alpha virt. eigenvalues --    0.13111   0.14875   0.16236   0.19355   0.20012
 Alpha virt. eigenvalues --    0.22575   0.23364   0.23760   0.25156   0.31744
 Alpha virt. eigenvalues --    0.34847   0.35944   0.37800   0.39229   0.42868

 Mulliken atomic charges:
              1
     1  P   -0.024758
     2  C   -0.309057
     3  C   -0.309056
     4  H    0.024462
     5  H    0.109584
     6  H    0.106032
     7  H    0.093589
     8  H    0.109582
     9  H    0.093593
    10  H    0.106028
 Sum of Mulliken atomic charges =   0.00000

 Dipole moment (field-independent basis, Debye):
    X=              0.0000    Y=             -1.0871    Z=              1.0988  Tot=              1.5457
 Quadrupole moment (field-independent basis, Debye-Ang):
   XX=            -26.2735   YY=            -28.6358   ZZ=            -31.0216
   XY=              0.0000   XZ=              0.0000   YZ=              2.4011

 Normal termination of Gaussian 09 at Sat Jun  4 22:12:20 2016.
