 Gaussian 09, Revision A.01,
 Gaussian 09:  EM64L-G09RevA.01  8-May-2009

 -------------
 # mp2/cc-pVTZ
 -------------

 -------------------
 Dimethylether-g.hin
 -------------------
 Symbolic Z-matrix:
 Charge =  0 Multiplicity = 1

                         Standard orientation:
 ---------------------------------------------------------------------
 Center     Atomic      Atomic             Coordinates (Angstroms)
 Number     Number       Type             X           Y           Z
 ---------------------------------------------------------------------
      1          6           0        1.173270   -0.198525    0.000000
      2          8           0        0.000000    0.581828   -0.000003
      3          6           0       -1.173269   -0.198526    0.000000
      4          1           0        2.031615    0.509902    0.000057
      5          1           0        1.209229   -0.823059    0.922047
      6          1           0        1.209289   -0.822998   -0.922090
      7          1           0       -1.209278   -0.822988    0.922092
      8          1           0       -2.031623    0.509896   -0.000047
      9          1           0       -1.209232   -0.823070   -0.922034
 ---------------------------------------------------------------------

 SCF Done:  E(RHF) =  -154.122591839     A.U. after   10 cycles
 E2 =    -0.5990835061D+00 EUMP2 =    -0.15472167534544D+03

 The electronic state is 1-A.
 Alpha  occ. eigenvalues --  -20.55061 -11.27508 -11.27506  -1.37093  -0.96238
 Alpha  occ. eigenvalues --   -0.86271  -0.65943  -0.64481  -0.63021  -0.54960
 Alpha  occ. eigenvalues --   -0.52041  -0.47318  -0.42143
 Alpha virt. eigenvalues --    0.14033   0.17653   0.20621   0.20680   0.23558
 Alpha virt. eigenvalues --    0.24359   0.25750   0.32910   0.37303   0.39077
 Alpha virt. eigenvalues --    0.40032   0.51463   0.55644   0.55756   0.60484

 Mulliken atomic charges:
              1
     1  C   -0.031836
     2  O   -0.346361
     3  C   -0.031835
     4  H    0.097345
     5  H    0.053834
     6  H    0.053837
     7  H    0.053837
     8  H    0.097343
     9  H    0.053836
 Sum of Mulliken atomic charges =   0.00000

 Dipole moment (field-independent basis, Debye):
    X=              0.0000    Y=             -1.3563    Z=              0.0000  Tot=              1.3563
 Quadrupole moment (field-independent basis, Debye-Ang):
   XX=            -17.4525   YY=            -21.3963   ZZ=            -20.0000
   XY=              0.0000   XZ=              0.0000   YZ=              0.0000

 Normal termination of Gaussian 09 at Sat Jun  4 22:13:17 2016.
