 Gaussian 09, Revision A.01,
 Gaussian 09:  EM64L-G09RevA.01  8-May-2009

 -------------
 # mp2/cc-pVTZ
 -------------

 ---------------------
 dimethilsulfide-g.hin
 ---------------------
 Symbolic Z-matrix:
 Charge =  0 Multiplicity = 1

                         Standard orientation:
 ---------------------------------------------------------------------
 Center     Atomic      Atomic             Coordinates (Angstroms)
 Number     Number       Type             X           Y           Z
 ---------------------------------------------------------------------
      1          6           0       -1.501891   -0.423638    0.000000
      2         16           0       -0.000001    0.553536    0.000003
      3          6           0        1.501894   -0.423635    0.000003
      4          1           0       -2.388281    0.249272    0.000042
      5          1           0       -1.531636   -1.067814   -0.907094
      6          1           0       -1.531609   -1.067929    0.907018
      7          1           0        1.531433   -1.068163   -0.906861
      8          1           0        2.388280    0.249275   -0.000422
      9          1           0        1.531816   -1.067583    0.907255
 ---------------------------------------------------------------------

 SCF Done:  E(RHF) =  -476.789743003     A.U. after   10 cycles
 E2 =    -0.5387615787D+00 EUMP2 =    -0.47732850458191D+03

 The electronic state is 1-A.
 Alpha  occ. eigenvalues --  -91.93428 -11.26044 -11.26044  -8.93667  -6.61814
 Alpha  occ. eigenvalues --   -6.61726  -6.61622  -1.05598  -0.95322  -0.79592
 Alpha  occ. eigenvalues --   -0.59484  -0.59477  -0.57459  -0.56252  -0.51769
 Alpha  occ. eigenvalues --   -0.40728  -0.32785
 Alpha virt. eigenvalues --    0.13171   0.15540   0.19373   0.19381   0.20706
 Alpha virt. eigenvalues --    0.22161   0.23446   0.27818   0.33987   0.36599
 Alpha virt. eigenvalues --    0.37021   0.37642   0.42753   0.45342   0.47481

 Mulliken atomic charges:
              1
     1  C   -0.236735
     2  S   -0.135179
     3  C   -0.236734
     4  H    0.115080
     5  H    0.094625
     6  H    0.094620
     7  H    0.094613
     8  H    0.115081
     9  H    0.094630
 Sum of Mulliken atomic charges =   0.00000

 Dipole moment (field-independent basis, Debye):
    X=              0.0000    Y=             -1.7251    Z=              0.0000  Tot=              1.7251
 Quadrupole moment (field-independent basis, Debye-Ang):
   XX=            -23.2883   YY=            -29.1469   ZZ=            -28.9107
   XY=              0.0000   XZ=             -0.0002   YZ=             -0.0001

 Normal termination of Gaussian 09 at Sat Jun  4 22:15:17 2016.
