 Gaussian 09, Revision A.01,
 Gaussian 09:  EM64L-G09RevA.01  8-May-2009

 -------------
 # mp2/cc-pVTZ
 -------------

 ------------
 ethane-g.hin
 ------------
 Symbolic Z-matrix:
 Charge =  0 Multiplicity = 1

                         Standard orientation:
 ---------------------------------------------------------------------
 Center     Atomic      Atomic             Coordinates (Angstroms)
 Number     Number       Type             X           Y           Z
 ---------------------------------------------------------------------
      1          6           0        0.132832   -0.284218   -0.698579
      2          6           0       -0.132830    0.284214    0.698573
      3          1           0        0.957093    0.269676   -1.204929
      4          1           0        0.424936   -1.358584   -0.643679
      5          1           0       -0.775723   -0.208354   -1.339952
      6          1           0       -0.957110   -0.269640    1.204946
      7          1           0        0.775707    0.208340    1.339968
      8          1           0       -0.424914    1.358584    0.643685
 ---------------------------------------------------------------------

 SCF Done:  E(RHF) =  -79.2564385079     A.U. after    9 cycles
 E2 =    -0.3708968711D+00 EUMP2 =    -0.79627335379051D+02

 The electronic state is 1-A.
 Alpha  occ. eigenvalues --  -11.22157 -11.22097  -1.01134  -0.83138  -0.59071
 Alpha  occ. eigenvalues --   -0.59071  -0.50707  -0.48134  -0.48134
 Alpha virt. eigenvalues --    0.13979   0.18093   0.20664   0.20664   0.23494
 Alpha virt. eigenvalues --    0.23494   0.33788   0.38382   0.40319   0.40319
 Alpha virt. eigenvalues --    0.41154   0.41154   0.59543   0.59543   0.61705

 Mulliken atomic charges:
              1
     1  C   -0.247065
     2  C   -0.247069
     3  H    0.082355
     4  H    0.082355
     5  H    0.082358
     6  H    0.082353
     7  H    0.082358
     8  H    0.082355
 Sum of Mulliken atomic charges =   0.00000

 Dipole moment (field-independent basis, Debye):
    X=              0.0000    Y=              0.0000    Z=              0.0000  Tot=              0.0000
 Quadrupole moment (field-independent basis, Debye-Ang):
   XX=            -15.0758   YY=            -15.1672   ZZ=            -15.7565
   XY=              0.0546   XZ=              0.1343   YZ=             -0.2873

 Normal termination of Gaussian 09 at Sat Jun  4 22:09:01 2016.
