 Gaussian 09, Revision A.01,
 Gaussian 09:  EM64L-G09RevA.01  8-May-2009

 -------------
 # mp2/cc-pVTZ
 -------------

 ---------------
 ethanol-ecl.hin
 ---------------
 Symbolic Z-matrix:
 Charge =  0 Multiplicity = 1

                         Standard orientation:
 ---------------------------------------------------------------------
 Center     Atomic      Atomic             Coordinates (Angstroms)
 Number     Number       Type             X           Y           Z
 ---------------------------------------------------------------------
      1          6           0        1.246404   -0.201081    0.000022
      2          6           0       -0.103225    0.530949   -0.000028
      3          8           0       -1.158915   -0.403921   -0.000065
      4          1           0       -1.965901    0.082197    0.000450
      5          1           0       -0.222947    1.173779    0.905224
      6          1           0       -0.222869    1.173808   -0.905271
      7          1           0        1.850378    0.065426    0.898023
      8          1           0        1.123091   -1.308521    0.000017
      9          1           0        1.850498    0.065468   -0.897887
 ---------------------------------------------------------------------

 SCF Done:  E(RHF) =  -154.133704901     A.U. after   11 cycles
 E2 =    -0.6012119433D+00 EUMP2 =    -0.15473491684456D+03

 The electronic state is 1-A.
 Alpha  occ. eigenvalues --  -20.54598 -11.27933 -11.22172  -1.36258  -1.00007
 Alpha  occ. eigenvalues --   -0.82986  -0.69870  -0.63898  -0.56906  -0.52593
 Alpha  occ. eigenvalues --   -0.52355  -0.48581  -0.43076
 Alpha virt. eigenvalues --    0.13814   0.16526   0.19093   0.20182   0.23255
 Alpha virt. eigenvalues --    0.25726   0.30906   0.33333   0.39669   0.39775
 Alpha virt. eigenvalues --    0.43608   0.51525   0.55108   0.56272   0.57042

 Mulliken atomic charges:
              1
     1  C   -0.278062
     2  C    0.096346
     3  O   -0.399466
     4  H    0.214339
     5  H    0.043680
     6  H    0.043688
     7  H    0.085460
     8  H    0.108550
     9  H    0.085465
 Sum of Mulliken atomic charges =   0.00000

 Dipole moment (field-independent basis, Debye):
    X=             -0.1506    Y=              1.5970    Z=              0.0009  Tot=              1.6041
 Quadrupole moment (field-independent basis, Debye-Ang):
   XX=            -17.3561   YY=            -20.7220   ZZ=            -20.1418
   XY=             -2.2073   XZ=             -0.0021   YZ=              0.0001

 Normal termination of Gaussian 09 at Sat Jun  4 22:06:26 2016.
