 Gaussian 09, Revision A.01,
 Gaussian 09:  EM64L-G09RevA.01  8-May-2009

 -------------
 # mp2/cc-pVTZ
 -------------

 -------------
 ethanol-g.hin
 -------------
 Symbolic Z-matrix:
 Charge =  0 Multiplicity = 1

                         Standard orientation:
 ---------------------------------------------------------------------
 Center     Atomic      Atomic             Coordinates (Angstroms)
 Number     Number       Type             X           Y           Z
 ---------------------------------------------------------------------
      1          6           0        1.240436   -0.205316    0.000000
      2          6           0       -0.100623    0.534887    0.000000
      3          8           0       -1.153560   -0.402461    0.000000
      4          1           0       -1.961679    0.081751    0.000000
      5          1           0       -0.210373    1.175052    0.908349
      6          1           0       -0.210368    1.175060   -0.908341
      7          1           0        2.090764    0.515220    0.000000
      8          1           0        1.340630   -0.852407    0.901899
      9          1           0        1.340630   -0.852407   -0.901891
 ---------------------------------------------------------------------

 SCF Done:  E(RHF) =  -154.139554639     A.U. after   11 cycles
 E2 =    -0.6010326013D+00 EUMP2 =    -0.15474058724039D+03

 The electronic state is 1-A.
 Alpha  occ. eigenvalues --  -20.54675 -11.27984 -11.22302  -1.36323  -1.00164
 Alpha  occ. eigenvalues --   -0.82897  -0.69816  -0.64067  -0.57108  -0.52800
 Alpha  occ. eigenvalues --   -0.52261  -0.48401  -0.43565
 Alpha virt. eigenvalues --    0.13801   0.16695   0.19844   0.20055   0.22088
 Alpha virt. eigenvalues --    0.24362   0.31877   0.32630   0.38497   0.40197
 Alpha virt. eigenvalues --    0.45216   0.47969   0.55175   0.56849   0.58633

 Mulliken atomic charges:
              1
     1  C   -0.256106
     2  C    0.091855
     3  O   -0.397988
     4  H    0.211670
     5  H    0.045285
     6  H    0.045287
     7  H    0.076736
     8  H    0.091629
     9  H    0.091632
 Sum of Mulliken atomic charges =   0.00000

 Dipole moment (field-independent basis, Debye):
    X=             -0.1595    Y=              1.6302    Z=              0.0000  Tot=              1.6380
 Quadrupole moment (field-independent basis, Debye-Ang):
   XX=            -17.2470   YY=            -20.8402   ZZ=            -20.1171
   XY=             -2.1601   XZ=              0.0000   YZ=              0.0000

 Normal termination of Gaussian 09 at Sat Jun  4 22:05:27 2016.
