 Gaussian 09, Revision A.01,
 Gaussian 09:  EM64L-G09RevA.01  8-May-2009

 -------------
 # mp2/cc-pVTZ
 -------------

 ----------------
 ethane-eclip.hin
 ----------------
 Symbolic Z-matrix:
 Charge =  0 Multiplicity = 1

                         Standard orientation:
 ---------------------------------------------------------------------
 Center     Atomic      Atomic             Coordinates (Angstroms)
 Number     Number       Type             X           Y           Z
 ---------------------------------------------------------------------
      1          6           0        0.024899    0.151563   -0.751758
      2          6           0       -0.024897   -0.151562    0.751758
      3          1           0        0.322134    1.208424   -0.944822
      4          1           0        0.759803   -0.502896   -1.275368
      5          1           0       -0.967605   -0.009294   -1.233048
      6          1           0       -1.043824   -0.473514    1.069103
      7          1           0        0.683608   -0.967001    1.026808
      8          1           0        0.245869    0.744276    1.357333
 ---------------------------------------------------------------------

 SCF Done:  E(RHF) =  -79.2513591895     A.U. after    9 cycles
 E2 =    -0.3711548114D+00 EUMP2 =    -0.79622514000883D+02

 The electronic state is 1-A.
 Alpha  occ. eigenvalues --  -11.22052 -11.21994  -1.00972  -0.83228  -0.59031
 Alpha  occ. eigenvalues --   -0.59031  -0.50852  -0.47791  -0.47791
 Alpha virt. eigenvalues --    0.14158   0.17679   0.19539   0.19539   0.26659
 Alpha virt. eigenvalues --    0.26659   0.34236   0.37802   0.37803   0.38402
 Alpha virt. eigenvalues --    0.45584   0.45584   0.56936   0.56936   0.62678

 Mulliken atomic charges:
              1
     1  C   -0.256833
     2  C   -0.256835
     3  H    0.085610
     4  H    0.085614
     5  H    0.085609
     6  H    0.085611
     7  H    0.085610
     8  H    0.085614
 Sum of Mulliken atomic charges =   0.00000

 Dipole moment (field-independent basis, Debye):
    X=              0.0000    Y=              0.0000    Z=              0.0000  Tot=              0.0000
 Quadrupole moment (field-independent basis, Debye-Ang):
   XX=            -15.0249   YY=            -15.0590   ZZ=            -15.8880
   XY=             -0.0058   XZ=              0.0286   YZ=              0.1742

 Normal termination of Gaussian 09 at Sat Jun  4 22:09:25 2016.
