 Gaussian 09, Revision A.01,
 Gaussian 09:  EM64L-G09RevA.01  8-May-2009

 -------------
 # mp2/cc-pVTZ
 -------------

 -------------------
 ethanethiol-ecl.hin
 -------------------
 Symbolic Z-matrix:
 Charge =  0 Multiplicity = 1

                         Standard orientation:
 ---------------------------------------------------------------------
 Center     Atomic      Atomic             Coordinates (Angstroms)
 Number     Number       Type             X           Y           Z
 ---------------------------------------------------------------------
      1          6           0       -0.564741    0.691233    0.079109
      2         16           0        1.167601   -0.080390   -0.077287
      3          1           0        1.632488   -0.987425    0.800101
      4          1           0       -0.640747    1.222053    1.056357
      5          1           0       -0.696627    1.449809   -0.726942
      6          6           0       -1.632636   -0.408651   -0.031505
      7          1           0       -1.210489   -1.428847   -0.179128
      8          1           0       -2.261637   -0.449296    0.887859
      9          1           0       -2.320332   -0.215553   -0.887273
 ---------------------------------------------------------------------

 SCF Done:  E(RHF) =  -476.771675959     A.U. after   12 cycles
 E2 =    -0.5396043475D+00 EUMP2 =    -0.47731128030659D+03

 The electronic state is 1-A.
 Alpha  occ. eigenvalues --  -91.94128 -11.28708 -11.23478  -8.94316  -6.62458
 Alpha  occ. eigenvalues --   -6.62371  -6.62282  -1.05404  -0.93035  -0.82618
 Alpha  occ. eigenvalues --   -0.62665  -0.59554  -0.55043  -0.51998  -0.50381
 Alpha  occ. eigenvalues --   -0.40335  -0.35071
 Alpha virt. eigenvalues --    0.12679   0.13664   0.17294   0.17761   0.19017
 Alpha virt. eigenvalues --    0.24975   0.25825   0.31231   0.31921   0.36402
 Alpha virt. eigenvalues --    0.37612   0.39883   0.43765   0.45878   0.46566

 Mulliken atomic charges:
              1
     1  C   -0.116975
     2  S   -0.257207
     3  H    0.107002
     4  H    0.115358
     5  H    0.123461
     6  C   -0.253294
     7  H    0.107103
     8  H    0.087424
     9  H    0.087129
 Sum of Mulliken atomic charges =   0.00000

 Dipole moment (field-independent basis, Debye):
    X=             -1.7720    Y=              0.0046    Z=              0.9158  Tot=              1.9947
 Quadrupole moment (field-independent basis, Debye-Ang):
   XX=            -29.0662   YY=            -26.9169   ZZ=            -27.7832
   XY=             -2.6737   XZ=              1.6530   YZ=             -1.5889

 Normal termination of Gaussian 09 at Sat Jun  4 22:08:35 2016.
