 Gaussian 09, Revision A.01,
 Gaussian 09:  EM64L-G09RevA.01  8-May-2009

 -------------
 # mp2/cc-pVTZ
 -------------

 -----------------
 ethanethiol-g.hin
 -----------------
 Symbolic Z-matrix:
 Charge =  0 Multiplicity = 1

                         Standard orientation:
 ---------------------------------------------------------------------
 Center     Atomic      Atomic             Coordinates (Angstroms)
 Number     Number       Type             X           Y           Z
 ---------------------------------------------------------------------
      1          6           0       -0.569885    0.700279    0.079715
      2         16           0        1.157267   -0.077677   -0.076983
      3          1           0        1.617023   -0.987016    0.800704
      4          1           0       -0.660447    1.222489    1.060339
      5          1           0       -0.718053    1.450221   -0.731556
      6          6           0       -1.610515   -0.419670   -0.032307
      7          1           0       -2.642002   -0.005746    0.052778
      8          1           0       -1.542816   -0.945444   -1.013005
      9          1           0       -1.487573   -1.175324    0.778021
 ---------------------------------------------------------------------

 SCF Done:  E(RHF) =  -476.777948769     A.U. after   12 cycles
 E2 =    -0.5394552149D+00 EUMP2 =    -0.47731740398404D+03

 The electronic state is 1-A.
 Alpha  occ. eigenvalues --  -91.94132 -11.28766 -11.23649  -8.94320  -6.62465
 Alpha  occ. eigenvalues --   -6.62377  -6.62289  -1.05627  -0.92972  -0.82528
 Alpha  occ. eigenvalues --   -0.62820  -0.59717  -0.54852  -0.51966  -0.50827
 Alpha  occ. eigenvalues --   -0.40437  -0.35149
 Alpha virt. eigenvalues --    0.12578   0.13770   0.17699   0.18864   0.19749
 Alpha virt. eigenvalues --    0.22454   0.23646   0.30368   0.32108   0.36966
 Alpha virt. eigenvalues --    0.38861   0.39765   0.42612   0.44726   0.46686

 Mulliken atomic charges:
              1
     1  C   -0.117279
     2  S   -0.257253
     3  H    0.106503
     4  H    0.112494
     5  H    0.121901
     6  C   -0.245122
     7  H    0.086370
     8  H    0.102443
     9  H    0.089944
 Sum of Mulliken atomic charges =   0.00000

 Dipole moment (field-independent basis, Debye):
    X=             -1.7677    Y=              0.0196    Z=              0.9127  Tot=              1.9895
 Quadrupole moment (field-independent basis, Debye-Ang):
   XX=            -29.0081   YY=            -27.0229   ZZ=            -27.7046
   XY=             -2.6586   XZ=              1.6521   YZ=             -1.6073

 Normal termination of Gaussian 09 at Sat Jun  4 22:07:30 2016.
