 Gaussian 09, Revision A.01,
 Gaussian 09:  EM64L-G09RevA.01  8-May-2009

 -------------
 # mp2/cc-pVTZ
 -------------

 -------------------
 ethilamine-anti.hin
 -------------------
 Symbolic Z-matrix:
 Charge =  0 Multiplicity = 1

                         Standard orientation:
 ---------------------------------------------------------------------
 Center     Atomic      Atomic             Coordinates (Angstroms)
 Number     Number       Type             X           Y           Z
 ---------------------------------------------------------------------
      1          6           0        1.197662   -0.270233    0.000008
      2          6           0       -0.057345    0.609145   -0.000008
      3          7           0       -1.249149   -0.203129   -0.000015
      4          1           0       -1.267332   -0.819311   -0.811793
      5          1           0       -1.267459   -0.819137    0.811893
      6          1           0        2.122010    0.352808    0.000014
      7          1           0        1.227729   -0.925458    0.901203
      8          1           0        1.227747   -0.925475   -0.901176
      9          1           0       -0.070284    1.262512    0.904301
     10          1           0       -0.070273    1.262490   -0.904342
 ---------------------------------------------------------------------

 SCF Done:  E(RHF) =  -134.299559693     A.U. after   12 cycles
 E2 =    -0.5795717205D+00 EUMP2 =    -0.13487913141297D+03

 The electronic state is 1-A.
 Alpha  occ. eigenvalues --  -15.53115 -11.25115 -11.21998  -1.17908  -0.97605
 Alpha  occ. eigenvalues --   -0.82310  -0.66957  -0.59609  -0.56207  -0.55992
 Alpha  occ. eigenvalues --   -0.50573  -0.48002  -0.38137
 Alpha virt. eigenvalues --    0.13746   0.17553   0.17922   0.18670   0.22655
 Alpha virt. eigenvalues --    0.23474   0.25795   0.31037   0.35118   0.38213
 Alpha virt. eigenvalues --    0.39828   0.47079   0.47684   0.50935   0.53191

 Mulliken atomic charges:
              1
     1  C   -0.257055
     2  C   -0.040236
     3  N   -0.355428
     4  H    0.130670
     5  H    0.130669
     6  H    0.076116
     7  H    0.073874
     8  H    0.073873
     9  H    0.083760
    10  H    0.083756
 Sum of Mulliken atomic charges =   0.00000

 Dipole moment (field-independent basis, Debye):
    X=              0.9948    Y=             -0.8194    Z=              0.0002  Tot=              1.2889
 Quadrupole moment (field-independent basis, Debye-Ang):
   XX=            -24.9633   YY=            -19.9992   ZZ=            -19.1765
   XY=              2.0761   XZ=             -0.0005   YZ=              0.0002

 Normal termination of Gaussian 09 at Sat Jun  4 22:04:26 2016.
