 Gaussian 09, Revision A.01,
 Gaussian 09:  EM64L-G09RevA.01  8-May-2009

 -------------
 # mp2/cc-pVTZ
 -------------

 ------------------
 ethilamine-ecl.hin
 ------------------
 Symbolic Z-matrix:
 Charge =  0 Multiplicity = 1

                         Standard orientation:
 ---------------------------------------------------------------------
 Center     Atomic      Atomic             Coordinates (Angstroms)
 Number     Number       Type             X           Y           Z
 ---------------------------------------------------------------------
      1          6           0       -1.205659   -0.264528    0.000005
      2          6           0        0.061073    0.604408   -0.000008
      3          7           0        1.255053   -0.205377   -0.000005
      4          1           0        1.274695   -0.821212    0.812007
      5          1           0        1.274639   -0.821325   -0.811947
      6          1           0       -0.965989   -1.352742    0.000013
      7          1           0       -1.835257   -0.066022    0.898186
      8          1           0       -1.835257   -0.066046   -0.898170
      9          1           0        0.084654    1.262834   -0.900441
     10          1           0        0.084664    1.262866    0.900405
 ---------------------------------------------------------------------

 SCF Done:  E(RHF) =  -134.293002944     A.U. after   12 cycles
 E2 =    -0.5797166038D+00 EUMP2 =    -0.13487271954789D+03

 The electronic state is 1-A.
 Alpha  occ. eigenvalues --  -15.53033 -11.25023 -11.21779  -1.17808  -0.97464
 Alpha  occ. eigenvalues --   -0.82386  -0.66666  -0.59390  -0.56377  -0.56331
 Alpha  occ. eigenvalues --   -0.50474  -0.47213  -0.38065
 Alpha virt. eigenvalues --    0.13857   0.17645   0.18134   0.18219   0.21874
 Alpha virt. eigenvalues --    0.23216   0.26757   0.31716   0.34731   0.40266
 Alpha virt. eigenvalues --    0.41373   0.44209   0.49043   0.50501   0.52604

 Mulliken atomic charges:
              1
     1  C   -0.287858
     2  C   -0.036565
     3  N   -0.360587
     4  H    0.132563
     5  H    0.132563
     6  H    0.079374
     7  H    0.085124
     8  H    0.085129
     9  H    0.085128
    10  H    0.085128
 Sum of Mulliken atomic charges =   0.00000

 Dipole moment (field-independent basis, Debye):
    X=             -0.9997    Y=             -0.8328    Z=              0.0001  Tot=              1.3011
 Quadrupole moment (field-independent basis, Debye-Ang):
   XX=            -25.0441   YY=            -19.9220   ZZ=            -19.1523
   XY=             -2.0974   XZ=              0.0003   YZ=              0.0001

 Normal termination of Gaussian 09 at Sat Jun  4 22:03:07 2016.
