 Gaussian 09, Revision A.01,
 Gaussian 09:  EM64L-G09RevA.01  8-May-2009

 -------------
 # mp2/cc-pVTZ
 -------------

 ------------
 Me-NH2-g.hin
 ------------
 Symbolic Z-matrix:
 Charge =  0 Multiplicity = 1

                         Standard orientation:
 ---------------------------------------------------------------------
 Center     Atomic      Atomic             Coordinates (Angstroms)
 Number     Number       Type             X           Y           Z
 ---------------------------------------------------------------------
      1          6           0        0.699915    0.000000    0.015985
      2          7           0       -0.732110    0.000000   -0.131385
      3          1           0        0.958261   -0.000001    1.099005
      4          1           0        1.127383   -0.909660   -0.464144
      5          1           0        1.127383    0.909660   -0.464152
      6          1           0       -1.143873   -0.812250    0.326533
      7          1           0       -1.143874    0.812250    0.326545
 ---------------------------------------------------------------------

 SCF Done:  E(RHF) =  -95.2499522089     A.U. after   11 cycles
 E2 =    -0.4047017569D+00 EUMP2 =    -0.95654653965843D+02

 The electronic state is 1-A.
 Alpha  occ. eigenvalues --  -15.53215 -11.24597  -1.17136  -0.88309  -0.65802
 Alpha  occ. eigenvalues --   -0.59917  -0.56013  -0.50989  -0.38280
 Alpha virt. eigenvalues --    0.13817   0.17907   0.19578   0.22221   0.24126
 Alpha virt. eigenvalues --    0.31009   0.40240   0.41038   0.50412   0.51406
 Alpha virt. eigenvalues --    0.58676   0.62530   0.62588   0.63340   0.65971

 Mulliken atomic charges:
              1
     1  C   -0.126165
     2  N   -0.364357
     3  H    0.048074
     4  H    0.081395
     5  H    0.081394
     6  H    0.139829
     7  H    0.139829
 Sum of Mulliken atomic charges =   0.00000

 Dipole moment (field-independent basis, Debye):
    X=              0.1623    Y=              0.0000    Z=              1.3428  Tot=              1.3526
 Quadrupole moment (field-independent basis, Debye-Ang):
   XX=            -14.0326   YY=            -12.5295   ZZ=            -15.3370
   XY=              0.0000   XZ=             -2.1333   YZ=              0.0000

 Normal termination of Gaussian 09 at Sat Jun  4 21:58:14 2016.
