 Gaussian 09, Revision A.01,
 Gaussian 09:  EM64L-G09RevA.01  8-May-2009

 -------------
 # mp2/cc-pVTZ
 -------------

 --------------
 Me-NH2-ecl.hin
 --------------
 Symbolic Z-matrix:
 Charge =  0 Multiplicity = 1

                         Standard orientation:
 ---------------------------------------------------------------------
 Center     Atomic      Atomic             Coordinates (Angstroms)
 Number     Number       Type             X           Y           Z
 ---------------------------------------------------------------------
      1          6           0        0.700245    0.000228   -0.016435
      2          7           0       -0.733026   -0.000212    0.131913
      3          1           0        1.014947   -0.891680   -0.604263
      4          1           0        1.020777    0.923298   -0.550558
      5          1           0        1.188856   -0.032366    0.984429
      6          1           0       -1.147466    0.810861   -0.326032
      7          1           0       -1.147404   -0.809997   -0.328355
 ---------------------------------------------------------------------

 SCF Done:  E(RHF) =  -95.2466892515     A.U. after   11 cycles
 E2 =    -0.4050859452D+00 EUMP2 =    -0.95651775196727D+02

 The electronic state is 1-A.
 Alpha  occ. eigenvalues --  -15.53139 -11.24544  -1.17050  -0.88292  -0.65935
 Alpha  occ. eigenvalues --   -0.59899  -0.55817  -0.50728  -0.38292
 Alpha virt. eigenvalues --    0.13844   0.17768   0.18671   0.22842   0.26094
 Alpha virt. eigenvalues --    0.31181   0.39029   0.39533   0.51669   0.54661
 Alpha virt. eigenvalues --    0.58984   0.62153   0.62613   0.63916   0.66805

 Mulliken atomic charges:
              1
     1  C   -0.121115
     2  N   -0.358121
     3  H    0.063998
     4  H    0.065440
     5  H    0.070312
     6  H    0.139843
     7  H    0.139643
 Sum of Mulliken atomic charges =   0.00000

 Dipole moment (field-independent basis, Debye):
    X=              0.1323    Y=              0.0053    Z=             -1.4460  Tot=              1.4521
 Quadrupole moment (field-independent basis, Debye-Ang):
   XX=            -14.1071   YY=            -12.5955   ZZ=            -15.2063
   XY=              0.0077   XZ=              1.9147   YZ=             -0.0027

 Normal termination of Gaussian 09 at Sat Jun  4 21:58:32 2016.
