 Gaussian 09, Revision A.01,
 Gaussian 09:  EM64L-G09RevA.01  8-May-2009

 -------------
 # mp2/cc-pVTZ
 -------------

 -----------------
 methanol-anti.hin
 -----------------
 Symbolic Z-matrix:
 Charge =  0 Multiplicity = 1

                         Standard orientation:
 ---------------------------------------------------------------------
 Center     Atomic      Atomic             Coordinates (Angstroms)
 Number     Number       Type             X           Y           Z
 ---------------------------------------------------------------------
      1          6           0       -0.661933   -0.017793    0.000000
      2          8           0        0.739040    0.126806   -0.000001
      3          1           0        1.110209   -0.739121    0.000008
      4          1           0       -0.962741   -0.582400    0.913094
      5          1           0       -1.125451    0.996242    0.000000
      6          1           0       -0.962742   -0.582412   -0.913088
 ---------------------------------------------------------------------

 SCF Done:  E(RHF) =  -115.087082142     A.U. after   10 cycles
 E2 =    -0.4274925526D+00 EUMP2 =    -0.11551457469461D+03

 The electronic state is 1-A.
 Alpha  occ. eigenvalues --  -20.54842 -11.27728  -1.36241  -0.91560  -0.69001
 Alpha  occ. eigenvalues --   -0.61929  -0.59306  -0.49814  -0.44407
 Alpha virt. eigenvalues --    0.13754   0.18043   0.21725   0.22258   0.28767
 Alpha virt. eigenvalues --    0.39236   0.39709   0.55214   0.57866   0.61780
 Alpha virt. eigenvalues --    0.62003   0.63317   0.68658   0.70731   0.72516

 Mulliken atomic charges:
              1
     1  C   -0.006153
     2  O   -0.399165
     3  H    0.217605
     4  H    0.050837
     5  H    0.086039
     6  H    0.050837
 Sum of Mulliken atomic charges =   0.00000

 Dipole moment (field-independent basis, Debye):
    X=             -0.8535    Y=             -1.5148    Z=              0.0000  Tot=              1.7387
 Quadrupole moment (field-independent basis, Debye-Ang):
   XX=            -13.0474   YY=            -12.0394   ZZ=            -13.6153
   XY=             -2.3139   XZ=              0.0000   YZ=              0.0000

 Normal termination of Gaussian 09 at Sat Jun  4 21:57:27 2016.
