 Gaussian 09, Revision A.01,
 Gaussian 09:  EM64L-G09RevA.01  8-May-2009

 -------------
 # mp2/cc-pVTZ
 -------------

 --------------------
 methanethiol-ecl.hin
 --------------------
 Symbolic Z-matrix:
 Charge =  0 Multiplicity = 1

                         Standard orientation:
 ---------------------------------------------------------------------
 Center     Atomic      Atomic             Coordinates (Angstroms)
 Number     Number       Type             X           Y           Z
 ---------------------------------------------------------------------
      1          6           0       -1.220077    0.040733   -0.000001
      2         16           0        0.663323   -0.089954    0.000000
      3          1           0        1.454469    0.997677   -0.000005
      4          1           0       -1.510086    1.115253   -0.000007
      5          1           0       -1.618541   -0.459040   -0.911094
      6          1           0       -1.618549   -0.459020    0.911100
 ---------------------------------------------------------------------

 SCF Done:  E(RHF) =  -437.732680370     A.U. after   11 cycles
 E2 =    -0.3641727604D+00 EUMP2 =    -0.43809685313018D+03

 The electronic state is 1-A.
 Alpha  occ. eigenvalues --  -91.94606 -11.28251  -8.94766  -6.62915  -6.62821
 Alpha  occ. eigenvalues --   -6.62735  -1.01563  -0.87080  -0.59577  -0.58767
 Alpha  occ. eigenvalues --   -0.55419  -0.41454  -0.35412
 Alpha virt. eigenvalues --    0.12385   0.13659   0.20161   0.20577   0.23338
 Alpha virt. eigenvalues --    0.30699   0.36544   0.37936   0.42619   0.45272
 Alpha virt. eigenvalues --    0.46007   0.49789   0.50829   0.56606   0.58586

 Mulliken atomic charges:
              1
     1  C   -0.211849
     2  S   -0.240160
     3  H    0.108109
     4  H    0.108777
     5  H    0.117562
     6  H    0.117561
 Sum of Mulliken atomic charges =   0.00000

 Dipole moment (field-independent basis, Debye):
    X=             -1.4827    Y=              1.1280    Z=              0.0000  Tot=              1.8630
 Quadrupole moment (field-independent basis, Debye-Ang):
   XX=            -18.7468   YY=            -20.4269   ZZ=            -22.7508
   XY=              2.1069   XZ=              0.0000   YZ=              0.0000

 Normal termination of Gaussian 09 at Sat Jun  4 21:57:56 2016.
