 Gaussian 09, Revision A.01,
 Gaussian 09:  EM64L-G09RevA.01  8-May-2009

 -------------
 # mp2/cc-pVTZ
 -------------

 ------------------
 methanethiol-g.hin
 ------------------
 Symbolic Z-matrix:
 Charge =  0 Multiplicity = 1

                         Standard orientation:
 ---------------------------------------------------------------------
 Center     Atomic      Atomic             Coordinates (Angstroms)
 Number     Number       Type             X           Y           Z
 ---------------------------------------------------------------------
      1          6           0        1.219120    0.040689   -0.000002
      2         16           0       -0.662961   -0.090098    0.000000
      3          1           0       -1.450376    1.000189    0.000000
      4          1           0        1.544637    0.590553    0.911226
      5          1           0        1.653751   -0.983868    0.000000
      6          1           0        1.544640    0.590559   -0.911215
 ---------------------------------------------------------------------

 SCF Done:  E(RHF) =  -437.733426505     A.U. after   11 cycles
 E2 =    -0.3640665748D+00 EUMP2 =    -0.43809749307984D+03

 The electronic state is 1-A.
 Alpha  occ. eigenvalues --  -91.94613 -11.28263  -8.94774  -6.62921  -6.62831
 Alpha  occ. eigenvalues --   -6.62738  -1.01604  -0.87088  -0.59626  -0.58670
 Alpha  occ. eigenvalues --   -0.55529  -0.41518  -0.35388
 Alpha virt. eigenvalues --    0.12453   0.13898   0.20327   0.20430   0.22589
 Alpha virt. eigenvalues --    0.30945   0.36527   0.37714   0.39295   0.45222
 Alpha virt. eigenvalues --    0.46231   0.52389   0.54983   0.55634   0.58537

 Mulliken atomic charges:
              1
     1  C   -0.209621
     2  S   -0.237506
     3  H    0.106197
     4  H    0.110278
     5  H    0.120371
     6  H    0.110281
 Sum of Mulliken atomic charges =   0.00000

 Dipole moment (field-independent basis, Debye):
    X=              1.4857    Y=              1.0919    Z=              0.0000  Tot=              1.8438
 Quadrupole moment (field-independent basis, Debye-Ang):
   XX=            -18.7341   YY=            -20.3704   ZZ=            -22.8297
   XY=             -2.2886   XZ=              0.0000   YZ=              0.0000

 Normal termination of Gaussian 09 at Sat Jun  4 21:57:41 2016.
