 Gaussian 09, Revision A.01,
 Gaussian 09:  EM64L-G09RevA.01  8-May-2009

 -------------
 # mp2/cc-pVTZ
 -------------

 ----------------------------
 methylformate-C=O-Lp-ecl.hin
 ----------------------------
 Symbolic Z-matrix:
 Charge =  0 Multiplicity = 1

                         Standard orientation:
 ---------------------------------------------------------------------
 Center     Atomic      Atomic             Coordinates (Angstroms)
 Number     Number       Type             X           Y           Z
 ---------------------------------------------------------------------
      1          6           0        0.706337    0.281556   -0.217867
      2          8           0        1.741495   -0.104578    0.275506
      3          8           0       -0.432049   -0.451977   -0.344627
      4          6           0       -1.593818    0.116178    0.226742
      5          1           0        0.561729    1.310291   -0.628321
      6          1           0       -1.386575    0.418766    1.280569
      7          1           0       -1.929437    0.995105   -0.374405
      8          1           0       -2.396406   -0.658129    0.221875
 ---------------------------------------------------------------------

 SCF Done:  E(RHF) =  -227.855101319     A.U. after   14 cycles
 E2 =    -0.8005928187D+00 EUMP2 =    -0.22865569413799D+03

 The electronic state is 1-A.
 Alpha  occ. eigenvalues --  -20.60363 -20.56765 -11.39334 -11.31408  -1.45861
 Alpha  occ. eigenvalues --   -1.37501  -0.97711  -0.84087  -0.72715  -0.68474
 Alpha  occ. eigenvalues --   -0.67022  -0.61588  -0.55660  -0.51933  -0.47222
 Alpha  occ. eigenvalues --   -0.46143
 Alpha virt. eigenvalues --    0.12419   0.14594   0.18298   0.19901   0.20862
 Alpha virt. eigenvalues --    0.23718   0.32092   0.37114   0.37334   0.39603
 Alpha virt. eigenvalues --    0.47272   0.51512   0.54299   0.55129   0.59059

 Mulliken atomic charges:
              1
     1  C    0.358699
     2  O   -0.343378
     3  O   -0.289054
     4  C   -0.045126
     5  H    0.056190
     6  H    0.075558
     7  H    0.073956
     8  H    0.113154
 Sum of Mulliken atomic charges =   0.00000

 Dipole moment (field-independent basis, Debye):
    X=             -3.3862    Y=              2.0381    Z=             -0.3488  Tot=              3.9676
 Quadrupole moment (field-independent basis, Debye-Ang):
   XX=            -25.9204   YY=            -23.4327   ZZ=            -23.2983
   XY=              0.7593   XZ=             -2.3466   YZ=             -0.7073

 Normal termination of Gaussian 09 at Sat Jun  4 21:57:03 2016.
