 Gaussian 09, Revision A.01,
 Gaussian 09:  EM64L-G09RevA.01  8-May-2009

 -------------
 # mp2/cc-pVTZ
 -------------

 --------------------------
 methylformate-H-Lp-ecl.hin
 --------------------------
 Symbolic Z-matrix:
 Charge =  0 Multiplicity = 1

                         Standard orientation:
 ---------------------------------------------------------------------
 Center     Atomic      Atomic             Coordinates (Angstroms)
 Number     Number       Type             X           Y           Z
 ---------------------------------------------------------------------
      1          6           0       -0.839639    0.433105    0.000008
      2          8           0       -1.361365   -0.657362    0.000020
      3          8           0        0.493846    0.700779    0.000100
      4          6           0        1.400866   -0.388184   -0.000056
      5          1           0       -1.412561    1.391666   -0.000442
      6          1           0        2.047350   -0.315158    0.906443
      7          1           0        0.890511   -1.378583   -0.000257
      8          1           0        2.047489   -0.314789   -0.906414
 ---------------------------------------------------------------------

 SCF Done:  E(RHF) =  -227.869458003     A.U. after   13 cycles
 E2 =    -0.8022606435D+00 EUMP2 =    -0.22867171864684D+03

 The electronic state is 1-A.
 Alpha  occ. eigenvalues --  -20.61460 -20.55868 -11.39214 -11.29664  -1.46093
 Alpha  occ. eigenvalues --   -1.37046  -0.98322  -0.81538  -0.73396  -0.68121
 Alpha  occ. eigenvalues --   -0.66960  -0.59513  -0.55481  -0.52436  -0.46587
 Alpha  occ. eigenvalues --   -0.46280
 Alpha virt. eigenvalues --    0.14625   0.15835   0.16922   0.21483   0.22321
 Alpha virt. eigenvalues --    0.25214   0.31960   0.36223   0.36368   0.38000
 Alpha virt. eigenvalues --    0.47327   0.52134   0.55045   0.56579   0.58778

 Mulliken atomic charges:
              1
     1  C    0.349380
     2  O   -0.391355
     3  O   -0.298119
     4  C   -0.038633
     5  H    0.104617
     6  H    0.084961
     7  H    0.104178
     8  H    0.084972
 Sum of Mulliken atomic charges =   0.00000

 Dipole moment (field-independent basis, Debye):
    X=              1.6341    Y=              1.1103    Z=             -0.0005  Tot=              1.9756
 Quadrupole moment (field-independent basis, Debye-Ang):
   XX=            -23.7286   YY=            -24.2270   ZZ=            -23.0563
   XY=             -5.3187   XZ=              0.0001   YZ=             -0.0004

 Normal termination of Gaussian 09 at Sat Jun  4 21:54:45 2016.
