 Gaussian 09, Revision A.01,
 Gaussian 09:  EM64L-G09RevA.01  8-May-2009

 -------------
 # mp2/cc-pVTZ
 -------------

 ----------------
 methanol-ecl.hin
 ----------------
 Symbolic Z-matrix:
 Charge =  0 Multiplicity = 1

                         Standard orientation:
 ---------------------------------------------------------------------
 Center     Atomic      Atomic             Coordinates (Angstroms)
 Number     Number       Type             X           Y           Z
 ---------------------------------------------------------------------
      1          6           0        0.662355    0.018658   -0.000002
      2          8           0       -0.740047   -0.127529    0.000003
      3          1           0       -1.118427    0.735133   -0.000012
      4          1           0        1.079990   -0.466701   -0.913118
      5          1           0        0.904683    1.106515   -0.000013
      6          1           0        1.079995   -0.466663    0.913136
 ---------------------------------------------------------------------

 SCF Done:  E(RHF) =  -115.085589403     A.U. after   10 cycles
 E2 =    -0.4277165488D+00 EUMP2 =    -0.11551330595133D+03

 The electronic state is 1-A.
 Alpha  occ. eigenvalues --  -20.54790 -11.27742  -1.36144  -0.91571  -0.69186
 Alpha  occ. eigenvalues --   -0.61634  -0.59386  -0.49670  -0.44402
 Alpha virt. eigenvalues --    0.13600   0.17845   0.22182   0.22378   0.29249
 Alpha virt. eigenvalues --    0.38713   0.38782   0.56055   0.58118   0.61632
 Alpha virt. eigenvalues --    0.61758   0.65542   0.66615   0.71067   0.72610

 Mulliken atomic charges:
              1
     1  C    0.009147
     2  O   -0.400471
     3  H    0.219923
     4  H    0.063155
     5  H    0.045092
     6  H    0.063153
 Sum of Mulliken atomic charges =   0.00000

 Dipole moment (field-independent basis, Debye):
    X=              0.8321    Y=              1.5989    Z=              0.0000  Tot=              1.8025
 Quadrupole moment (field-independent basis, Debye-Ang):
   XX=            -13.0397   YY=            -12.1149   ZZ=            -13.5368
   XY=             -2.1856   XZ=              0.0000   YZ=              0.0000

 Normal termination of Gaussian 09 at Sat Jun  4 21:57:15 2016.
