 Gaussian 09, Revision E.01,
 Gaussian 09:  ES64L-G09RevE.01 30-Nov-2015

 ------------------------------
 # opt=modredundant mp2/cc-pVTZ
 ------------------------------

 ----------------
 methanethiol-ecl
 ----------------
 Symbolic Z-matrix:
 Charge =  0 Multiplicity = 1

 SCF Done:  E(RHF) =  -437.732663762     A.U. after   11 cycles
 E2 =    -0.3641669388D+00 EUMP2 =    -0.43809683070115D+03
 SCF Done:  E(RHF) =  -437.751786210     A.U. after   10 cycles
 E2 =    -0.3630375220D+00 EUMP2 =    -0.43811482373227D+03
 SCF Done:  E(RHF) =  -437.754499604     A.U. after   10 cycles
 E2 =    -0.3633329558D+00 EUMP2 =    -0.43811783255983D+03
 SCF Done:  E(RHF) =  -437.754503110     A.U. after    8 cycles
 E2 =    -0.3633515798D+00 EUMP2 =    -0.43811785468943D+03
 SCF Done:  E(RHF) =  -437.754500473     A.U. after    7 cycles
 E2 =    -0.3633553566D+00 EUMP2 =    -0.43811785582916D+03
 Optimization completed.
    -- Stationary point found.

                         Standard orientation:
 ---------------------------------------------------------------------
 Center     Atomic      Atomic             Coordinates (Angstroms)
 Number     Number       Type             X           Y           Z
 ---------------------------------------------------------------------
      1          6           0       -1.157449    0.013027    0.000002
      2         16           0        0.663580   -0.087802    0.000002
      3          1           0        0.896736    1.224986   -0.000006
      4          1           0       -1.471280    1.050883   -0.000605
      5          1           0       -1.549016   -0.475117   -0.886450
      6          1           0       -1.549034   -0.474086    0.887014
 ---------------------------------------------------------------------

 The electronic state is 1-A.
 Alpha  occ. eigenvalues --  -91.94862 -11.25618  -8.95091  -6.63228  -6.63127
 Alpha  occ. eigenvalues --   -6.63026  -1.03555  -0.86742  -0.60807  -0.59073
 Alpha  occ. eigenvalues --   -0.53077  -0.45500  -0.35569
 Alpha virt. eigenvalues --    0.12354   0.15762   0.20130   0.20978   0.23205
 Alpha virt. eigenvalues --    0.34058   0.36578   0.38016   0.40651   0.44977
 Alpha virt. eigenvalues --    0.45754   0.49408   0.50202   0.54898   0.57859

 Mulliken charges:
               1
     1  C   -0.236662
     2  S   -0.182206
     3  H    0.093699
     4  H    0.104554
     5  H    0.110307
     6  H    0.110308
 Sum of Mulliken charges =  -0.00000

 Dipole moment (field-independent basis, Debye):
    X=             -1.4402    Y=              0.9251    Z=             -0.0000  Tot=              1.7117
 Quadrupole moment (field-independent basis, Debye-Ang):
   XX=            -20.3807   YY=            -19.3761   ZZ=            -22.6452
   XY=              1.2805   XZ=              0.0001   YZ=              0.0000

 Normal termination of Gaussian 09 at Sun Jul 15 21:18:41 2018.
