 Gaussian 09, Revision E.01,
 Gaussian 09:  ES64L-G09RevE.01 30-Nov-2015

 -----------------
 # opt mp2/cc-pVTZ
 -----------------

 --------------
 methanethiol-g
 --------------
 Symbolic Z-matrix:
 Charge =  0 Multiplicity = 1

 SCF Done:  E(RHF) =  -437.756757328     A.U. after   11 cycles
 E2 =    -0.3629875866D+00 EUMP2 =    -0.43811974491500D+03
 SCF Done:  E(RHF) =  -437.756511396     A.U. after    9 cycles
 E2 =    -0.3633642467D+00 EUMP2 =    -0.43811987564276D+03
 SCF Done:  E(RHF) =  -437.756586135     A.U. after    8 cycles
 E2 =    -0.3633008437D+00 EUMP2 =    -0.43811988697880D+03
 Optimization completed.
    -- Stationary point found.

                         Standard orientation:
 ---------------------------------------------------------------------
 Center     Atomic      Atomic             Coordinates (Angstroms)
 Number     Number       Type             X           Y           Z
 ---------------------------------------------------------------------
      1          6           0       -1.151789    0.019159    0.000032
      2         16           0        0.660537   -0.086120   -0.000028
      3          1           0        0.892206    1.229419    0.000132
      4          1           0       -1.517844    0.519327   -0.890842
      5          1           0       -1.514425   -1.004898   -0.000081
      6          1           0       -1.517798    0.519115    0.891044
 ---------------------------------------------------------------------

 The electronic state is 1-A.
 Alpha  occ. eigenvalues --  -91.94923 -11.25641  -8.95151  -6.63288  -6.63186
 Alpha  occ. eigenvalues --   -6.63080  -1.03742  -0.86658  -0.60816  -0.59261
 Alpha  occ. eigenvalues --   -0.52716  -0.45870  -0.35618
 Alpha virt. eigenvalues --    0.12473   0.16357   0.20610   0.20678   0.21292
 Alpha virt. eigenvalues --    0.35035   0.36547   0.38494   0.38752   0.43688
 Alpha virt. eigenvalues --    0.45749   0.51122   0.52754   0.55448   0.57122

 Mulliken charges:
               1
     1  C   -0.235458
     2  S   -0.174666
     3  H    0.088848
     4  H    0.108649
     5  H    0.103978
     6  H    0.108649
 Sum of Mulliken charges =  -0.00000

 Dipole moment (field-independent basis, Debye):
    X=             -1.4169    Y=              0.8629    Z=              0.0001  Tot=              1.6590
 Quadrupole moment (field-independent basis, Debye-Ang):
   XX=            -20.3527   YY=            -19.4182   ZZ=            -22.6400
   XY=              1.3652   XZ=              0.0001   YZ=              0.0004

 Normal termination of Gaussian 09 at Sun Jul 15 21:18:18 2018.
