 Gaussian 09, Revision A.01,
 Gaussian 09:  EM64L-G09RevA.01  8-May-2009

 -------------
 # mp2/cc-pVTZ
 -------------

 --------------------------
 methylformate-C=O-Lp-g.hin
 --------------------------
 Symbolic Z-matrix:
 Charge =  0 Multiplicity = 1

                         Standard orientation:
 ---------------------------------------------------------------------
 Center     Atomic      Atomic             Coordinates (Angstroms)
 Number     Number       Type             X           Y           Z
 ---------------------------------------------------------------------
      1          6           0       -0.830592    0.438231    0.000005
      2          8           0       -1.328010   -0.663763    0.000000
      3          8           0        0.500274    0.717569    0.000004
      4          6           0        1.366394   -0.400331   -0.000004
      5          1           0       -1.415363    1.389387   -0.000034
      6          1           0        1.203245   -1.012056    0.919375
      7          1           0        1.203162   -1.012104   -0.919337
      8          1           0        2.416032   -0.023076   -0.000051
 ---------------------------------------------------------------------

 SCF Done:  E(RHF) =  -227.871172855     A.U. after   13 cycles
 E2 =    -0.8020657090D+00 EUMP2 =    -0.22867323856365D+03

 The electronic state is 1-A.
 Alpha  occ. eigenvalues --  -20.61445 -20.55997 -11.39086 -11.29805  -1.46339
 Alpha  occ. eigenvalues --   -1.37043  -0.98169  -0.81524  -0.73307  -0.68061
 Alpha  occ. eigenvalues --   -0.67428  -0.59722  -0.54934  -0.52601  -0.46751
 Alpha  occ. eigenvalues --   -0.46533
 Alpha virt. eigenvalues --    0.14761   0.15794   0.16863   0.20552   0.22472
 Alpha virt. eigenvalues --    0.24253   0.31314   0.37774   0.38059   0.43802
 Alpha virt. eigenvalues --    0.44462   0.52389   0.54676   0.56825   0.59394

 Mulliken atomic charges:
              1
     1  C    0.343500
     2  O   -0.389431
     3  O   -0.296863
     4  C   -0.034078
     5  H    0.108069
     6  H    0.083810
     7  H    0.083811
     8  H    0.101182
 Sum of Mulliken atomic charges =   0.00000

 Dipole moment (field-independent basis, Debye):
    X=              1.5751    Y=              1.1669    Z=              0.0000  Tot=              1.9603
 Quadrupole moment (field-independent basis, Debye-Ang):
   XX=            -23.4157   YY=            -24.4962   ZZ=            -23.0058
   XY=             -5.2490   XZ=              0.0000   YZ=              0.0000

 Normal termination of Gaussian 09 at Sat Jun  4 21:55:54 2016.
