 Gaussian 09, Revision E.01,
 Gaussian 09:  ES64L-G09RevE.01 30-Nov-2015

 ------------------------------
 # opt=modredundant mp2/cc-pVTZ
 ------------------------------

 ---------------------
 N-me-piperidine ch-NI
 ---------------------
 Symbolic Z-matrix:
 Charge =  0 Multiplicity = 1

 SCF Done:  E(RHF) =  -289.294259069     A.U. after   12 cycles
 E2 =    -0.1252155383D+01 EUMP2 =    -0.29054641445230D+03
 SCF Done:  E(RHF) =  -289.297159840     A.U. after    9 cycles
 E2 =    -0.1251683985D+01 EUMP2 =    -0.29054884382478D+03
 SCF Done:  E(RHF) =  -289.301431160     A.U. after   10 cycles
 E2 =    -0.1250488314D+01 EUMP2 =    -0.29055191947401D+03
 SCF Done:  E(RHF) =  -289.302879247     A.U. after    9 cycles
 E2 =    -0.1249855895D+01 EUMP2 =    -0.29055273514238D+03
 SCF Done:  E(RHF) =  -289.303110141     A.U. after    8 cycles
 E2 =    -0.1249817336D+01 EUMP2 =    -0.29055292747660D+03
 SCF Done:  E(RHF) =  -289.303135230     A.U. after    9 cycles
 E2 =    -0.1250198068D+01 EUMP2 =    -0.29055333329797D+03
 SCF Done:  E(RHF) =  -289.303081782     A.U. after    8 cycles
 E2 =    -0.1250266676D+01 EUMP2 =    -0.29055334845817D+03
 SCF Done:  E(RHF) =  -289.303063842     A.U. after    8 cycles
 E2 =    -0.1250319182D+01 EUMP2 =    -0.29055338302354D+03
 SCF Done:  E(RHF) =  -289.303084553     A.U. after    9 cycles
 E2 =    -0.1250345847D+01 EUMP2 =    -0.29055343040069D+03
 SCF Done:  E(RHF) =  -289.303107384     A.U. after    7 cycles
 E2 =    -0.1250324089D+01 EUMP2 =    -0.29055343147338D+03
 SCF Done:  E(RHF) =  -289.303106883     A.U. after    6 cycles
 E2 =    -0.1250324639D+01 EUMP2 =    -0.29055343152191D+03
 Optimization completed.
    -- Stationary point found.

                         Standard orientation:
 ---------------------------------------------------------------------
 Center     Atomic      Atomic             Coordinates (Angstroms)
 Number     Number       Type             X           Y           Z
 ---------------------------------------------------------------------
      1          6           0       -1.867829   -0.000116   -0.086157
      2          6           0       -1.091309    1.254405    0.305941
      3          6           0       -1.091134   -1.254560    0.305849
      4          6           0        0.280690    1.250532   -0.363353
      5          6           0        0.280855   -1.250483   -0.363391
      6          7           0        0.963185    0.000288   -0.138911
      7          6           0        2.336694   -0.000047    0.294534
      8          1           0       -2.028816   -0.000080   -1.169194
      9          1           0       -2.853010   -0.000215    0.381128
     10          1           0       -0.959002    1.270966    1.390179
     11          1           0       -1.641950    2.152962    0.021309
     12          1           0       -1.641651   -2.153179    0.021174
     13          1           0       -0.958847   -1.271176    1.390088
     14          1           0        0.899654    2.055699    0.030382
     15          1           0        0.138264    1.446954   -1.440095
     16          1           0        0.138710   -1.446863   -1.440143
     17          1           0        0.900090   -2.055367    0.030483
     18          1           0        2.859347   -0.874251   -0.097052
     19          1           0        2.857980    0.876952   -0.092474
     20          1           0        2.459133   -0.002811    1.386049
 ---------------------------------------------------------------------

 The electronic state is 1-A.
 Alpha  occ. eigenvalues --  -15.51975 -11.24061 -11.24058 -11.23797 -11.21123
 Alpha  occ. eigenvalues --  -11.20861 -11.20853  -1.21959  -1.06500  -1.01357
 Alpha  occ. eigenvalues --   -0.93496  -0.84648  -0.82802  -0.74517  -0.65631
 Alpha  occ. eigenvalues --   -0.62622  -0.61836  -0.59954  -0.57304  -0.55760
 Alpha  occ. eigenvalues --   -0.53868  -0.53010  -0.50015  -0.48103  -0.46646
 Alpha  occ. eigenvalues --   -0.44575  -0.44510  -0.31063
 Alpha virt. eigenvalues --    0.13881   0.16135   0.16604   0.16764   0.20084
 Alpha virt. eigenvalues --    0.20446   0.20673   0.21930   0.22465   0.23809
 Alpha virt. eigenvalues --    0.24125   0.25638   0.27043   0.27654   0.31441

 Mulliken charges:
               1
     1  C   -0.187808
     2  C   -0.180170
     3  C   -0.180212
     4  C   -0.081348
     5  C   -0.081274
     6  N   -0.224284
     7  C   -0.188795
     8  H    0.083599
     9  H    0.108241
    10  H    0.083078
    11  H    0.100142
    12  H    0.100158
    13  H    0.083098
    14  H    0.094960
    15  H    0.068114
    16  H    0.068234
    17  H    0.094972
    18  H    0.081878
    19  H    0.081954
    20  H    0.075463
 Sum of Mulliken charges =  -0.00000

 Dipole moment (field-independent basis, Debye):
    X=              0.0613    Y=             -0.0003    Z=              0.1245  Tot=              0.1388
 Quadrupole moment (field-independent basis, Debye-Ang):
   XX=            -45.8244   YY=            -45.1839   ZZ=            -46.9414
   XY=              0.0023   XZ=              0.3889   YZ=              0.0011

 Normal termination of Gaussian 09 at Wed Sep 12 23:28:40 2018.
