 Gaussian 09, Revision A.01,
 Gaussian 09:  EM64L-G09RevA.01  8-May-2009

 -------------
 # mp2/cc-pVTZ
 -------------

 --------------------------
 N-methylpyrrolidine-ts.hin
 --------------------------
 Symbolic Z-matrix:
 Charge =  0 Multiplicity = 1

                         Standard orientation:
 ---------------------------------------------------------------------
 Center     Atomic      Atomic             Coordinates (Angstroms)
 Number     Number       Type             X           Y           Z
 ---------------------------------------------------------------------
      1          6           0       -1.484362    0.733920   -0.211665
      2          6           0       -1.476373   -0.740348    0.222838
      3          6           0       -0.053910   -1.197630   -0.134486
      4          6           0       -0.058437    1.200956    0.119457
      5          7           0        0.724086    0.002922   -0.006742
      6          6           0        2.157747    0.000854    0.006982
      7          1           0       -2.267838   -1.346230   -0.279043
      8          1           0       -1.627079   -0.802005    1.327609
      9          1           0        0.001560   -1.547037   -1.192148
     10          1           0        0.318480   -1.995269    0.550242
     11          1           0        0.013102    1.560774    1.172578
     12          1           0        0.294806    1.995831   -0.578395
     13          1           0        2.514490   -0.105865    1.056230
     14          1           0        2.548322   -0.846722   -0.600603
     15          1           0        2.553800    0.950387   -0.418769
     16          1           0       -2.270427    1.335038    0.304237
     17          1           0       -1.655806    0.794133   -1.313507
 ---------------------------------------------------------------------

 SCF Done:  E(RHF) =  -250.247307521     A.U. after   11 cycles
 E2 =    -0.1075038605D+01 EUMP2 =    -0.25132234612579D+03

 The electronic state is 1-A.
 Alpha  occ. eigenvalues --  -15.51630 -11.24586 -11.24574 -11.24561 -11.22395
 Alpha  occ. eigenvalues --  -11.22335  -1.22996  -1.04551  -0.97272  -0.90667
 Alpha  occ. eigenvalues --   -0.78710  -0.75938  -0.66408  -0.65120  -0.59411
 Alpha  occ. eigenvalues --   -0.57266  -0.56984  -0.51807  -0.51100  -0.50051
 Alpha  occ. eigenvalues --   -0.47025  -0.46981  -0.45858  -0.30898
 Alpha virt. eigenvalues --    0.13464   0.15939   0.17249   0.17834   0.20283
 Alpha virt. eigenvalues --    0.21064   0.21579   0.22156   0.23889   0.24490
 Alpha virt. eigenvalues --    0.26269   0.27429   0.31513   0.32044   0.34273

 Mulliken atomic charges:
              1
     1  C   -0.178510
     2  C   -0.182163
     3  C   -0.064273
     4  C   -0.062401
     5  N   -0.188172
     6  C   -0.165165
     7  H    0.097299
     8  H    0.083831
     9  H    0.057211
    10  H    0.068738
    11  H    0.053628
    12  H    0.069868
    13  H    0.070871
    14  H    0.081026
    15  H    0.077715
    16  H    0.096897
    17  H    0.083600
 Sum of Mulliken atomic charges =   0.00000

 Dipole moment (field-independent basis, Debye):
    X=             -0.2016    Y=              0.0016    Z=             -0.0825  Tot=              0.2178
 Quadrupole moment (field-independent basis, Debye-Ang):
   XX=            -39.1940   YY=            -39.6729   ZZ=            -39.7586
   XY=              0.0305   XZ=             -0.3146   YZ=             -0.1989

 Normal termination of Gaussian 09 at Sat Jun  4 03:20:51 2016.
