 Gaussian 09, Revision A.01,
 Gaussian 09:  EM64L-G09RevA.01  8-May-2009

 -------------
 # mp2/cc-pVTZ
 -------------

 ---------------------------------------------
 N-Me-spiro[piperidine-2,2'-adamantane]-ch.hin
 ---------------------------------------------
 Symbolic Z-matrix:
 Charge =  0 Multiplicity = 1

                         Standard orientation:
 ---------------------------------------------------------------------
 Center     Atomic      Atomic             Coordinates (Angstroms)
 Number     Number       Type             X           Y           Z
 ---------------------------------------------------------------------
      1          6           0       -2.371751   -1.108932   -0.400945
      2          6           0       -1.324768   -1.720659    0.539970
      3          6           0       -0.308420   -0.641267    0.964972
      4          6           0        0.483112   -0.028844   -0.237563
      5          6           0       -0.634191    0.547478   -1.166760
      6          6           0       -1.658172   -0.513259   -1.622394
      7          6           0       -1.424268    1.663632   -0.448930
      8          6           0       -2.133771    1.082897    0.784451
      9          6           0       -1.086592    0.457559    1.719843
     10          6           0       -3.133306    0.003414    0.338258
     11          6           0        1.313056   -1.097023   -1.010971
     12          6           0        2.429091   -1.656701   -0.113342
     13          6           0        3.331211   -0.504152    0.338276
     14          6           0        2.468980    0.526992    1.082917
     15          7           0        1.403204    1.041820    0.219785
     16          6           0        1.964958    1.881561   -0.835871
     17          1           0       -3.092766   -1.897991   -0.730250
     18          1           0       -0.821302   -2.587961    0.055431
     19          1           0       -1.834486   -2.142481    1.438810
     20          1           0        0.374342   -1.129722    1.696221
     21          1           0       -0.178572    0.958272   -2.098993
     22          1           0       -1.177155   -1.317894   -2.223738
     23          1           0       -2.410900   -0.050584   -2.304247
     24          1           0       -2.173586    2.113665   -1.142423
     25          1           0       -0.762213    2.502209   -0.133805
     26          1           0       -2.682062    1.895876    1.322416
     27          1           0       -1.592179    0.027251    2.616800
     28          1           0       -0.397836    1.243610    2.108092
     29          1           0       -3.669565   -0.416166    1.222220
     30          1           0       -3.910729    0.447973   -0.327322
     31          1           0        1.747452   -0.676177   -1.946010
     32          1           0        0.692321   -1.954965   -1.347818
     33          1           0        3.036504   -2.394527   -0.691127
     34          1           0        2.019282   -2.213056    0.760921
     35          1           0        3.874621   -0.056292   -0.525679
     36          1           0        4.116483   -0.897089    1.028026
     37          1           0        3.112153    1.367770    1.436879
     38          1           0        2.053362    0.092055    2.019620
     39          1           0        1.183171    2.487917   -1.342648
     40          1           0        2.663557    2.635920   -0.406262
     41          1           0        2.516660    1.313464   -1.615078
 ---------------------------------------------------------------------

 SCF Done:  E(RHF) =  -637.209241859     A.U. after   12 cycles
 E2 =    -0.2791378839D+01 EUMP2 =    -0.64000062069788D+03

 The electronic state is 1-A.
 Alpha  occ. eigenvalues --  -15.53711 -11.25852 -11.24439 -11.24158 -11.22050
 Alpha  occ. eigenvalues --  -11.22045 -11.21874 -11.21799 -11.21617 -11.21535
 Alpha  occ. eigenvalues --  -11.21499 -11.21484 -11.21480 -11.21121 -11.20873
 Alpha  occ. eigenvalues --  -11.20813  -1.22896  -1.14799  -1.05823  -1.03473
 Alpha  occ. eigenvalues --   -1.02765  -1.02552  -0.96322  -0.92257  -0.89317
 Alpha  occ. eigenvalues --   -0.85338  -0.83460  -0.80101  -0.77992  -0.77542
 Alpha  occ. eigenvalues --   -0.73652  -0.69090  -0.65392  -0.62647  -0.62183
 Alpha  occ. eigenvalues --   -0.61069  -0.60327  -0.58859  -0.58145  -0.57483
 Alpha  occ. eigenvalues --   -0.56479  -0.55938  -0.53895  -0.53621  -0.53317
 Alpha  occ. eigenvalues --   -0.52818  -0.52169  -0.50676  -0.48900  -0.48630
 Alpha  occ. eigenvalues --   -0.47774  -0.46444  -0.45550  -0.45459  -0.44824
 Alpha  occ. eigenvalues --   -0.44178  -0.42986  -0.40017  -0.39748  -0.38862
 Alpha  occ. eigenvalues --   -0.33158
 Alpha virt. eigenvalues --    0.12866   0.14607   0.15305   0.15782   0.17151
 Alpha virt. eigenvalues --    0.17257   0.17528   0.17888   0.19130   0.20339
 Alpha virt. eigenvalues --    0.20570   0.21462   0.21671   0.22685   0.22723

 Mulliken atomic charges:
              1
     1  C   -0.053003
     2  C   -0.230934
     3  C   -0.127732
     4  C    0.162904
     5  C   -0.112069
     6  C   -0.242229
     7  C   -0.208187
     8  C   -0.068007
     9  C   -0.199850
    10  C   -0.214272
    11  C   -0.257761
    12  C   -0.190088
    13  C   -0.193798
    14  C   -0.109188
    15  N   -0.253663
    16  C   -0.222297
    17  H    0.096364
    18  H    0.106597
    19  H    0.102515
    20  H    0.112136
    21  H    0.108642
    22  H    0.107098
    23  H    0.102640
    24  H    0.096494
    25  H    0.109079
    26  H    0.095557
    27  H    0.096746
    28  H    0.108291
    29  H    0.094641
    30  H    0.095354
    31  H    0.114008
    32  H    0.116340
    33  H    0.100864
    34  H    0.095464
    35  H    0.094026
    36  H    0.096753
    37  H    0.100117
    38  H    0.096223
    39  H    0.100058
    40  H    0.101025
    41  H    0.073141
 Sum of Mulliken atomic charges =   0.00000

 Dipole moment (field-independent basis, Debye):
    X=              0.5410    Y=             -0.4067    Z=             -0.3485  Tot=              0.7612
 Quadrupole moment (field-independent basis, Debye-Ang):
   XX=           -101.7743   YY=           -103.1014   ZZ=           -101.8565
   XY=              0.7611   XZ=             -0.0067   YZ=             -1.3016

 Normal termination of Gaussian 09 at Fri Jul 22 02:38:29 2016.
