 Gaussian 09, Revision A.01,
 Gaussian 09:  EM64L-G09RevA.01  8-May-2009

 -------------
 # mp2/cc-pVTZ
 -------------

 --------------------------------------------
 N-Me-spiro[piperidine-2,2'-adamantane]-b.hin
 --------------------------------------------
 Symbolic Z-matrix:
 Charge =  0 Multiplicity = 1

                         Standard orientation:
 ---------------------------------------------------------------------
 Center     Atomic      Atomic             Coordinates (Angstroms)
 Number     Number       Type             X           Y           Z
 ---------------------------------------------------------------------
      1          6           0        2.306038   -1.253601   -0.078278
      2          6           0        1.322727   -1.243631   -1.263945
      3          6           0        0.347553   -0.040661   -1.143204
      4          6           0       -0.507700   -0.105313    0.171349
      5          6           0        0.569411   -0.070903    1.306678
      6          6           0        1.540504   -1.268408    1.253538
      7          6           0        1.416647    1.217323    1.233124
      8          6           0        2.239570    1.238351   -0.065572
      9          6           0        1.293443    1.177165   -1.273081
     10          6           0        3.171353    0.016952   -0.117998
     11          6           0       -1.257300   -1.470597    0.287098
     12          6           0       -2.518702   -1.525232   -0.585927
     13          6           0       -3.443579   -0.346198   -0.266513
     14          6           0       -2.811373    0.523727    0.824526
     15          7           0       -1.470541    0.996496    0.479217
     16          6           0       -1.608903    2.041038   -0.527315
     17          1           0        2.968767   -2.152167   -0.142597
     18          1           0        0.798229   -2.219736   -1.354623
     19          1           0        1.899270   -1.183469   -2.217510
     20          1           0       -0.333698   -0.070947   -2.026055
     21          1           0        0.049730   -0.090035    2.296598
     22          1           0        1.016599   -2.240389    1.395065
     23          1           0        2.260890   -1.211168    2.103813
     24          1           0        2.105315    1.269954    2.109583
     25          1           0        0.773952    2.125382    1.296637
     26          1           0        2.853604    2.172159   -0.110387
     27          1           0        1.889968    1.109550   -2.213624
     28          1           0        0.770506    2.143929   -1.400529
     29          1           0        3.788168    0.036428   -1.047711
     30          1           0        3.886413    0.035006    0.738359
     31          1           0       -1.529850   -1.688531    1.345873
     32          1           0       -0.645165   -2.353920    0.014019
     33          1           0       -3.052003   -2.493397   -0.425578
     34          1           0       -2.227143   -1.500178   -1.662704
     35          1           0       -4.434721   -0.718506    0.088232
     36          1           0       -3.646636    0.256224   -1.183341
     37          1           0       -2.775569   -0.021828    1.796602
     38          1           0       -3.487213    1.379414    1.064328
     39          1           0       -2.504250    2.679299   -0.349252
     40          1           0       -0.788077    2.782002   -0.435831
     41          1           0       -1.701434    1.639387   -1.560767
 ---------------------------------------------------------------------

 SCF Done:  E(RHF) =  -637.182254067     A.U. after   12 cycles
 E2 =    -0.2792661230D+01 EUMP2 =    -0.63997491529701D+03

 The electronic state is 1-A.
 Alpha  occ. eigenvalues --  -15.53846 -11.26213 -11.24337 -11.23911 -11.22958
 Alpha  occ. eigenvalues --  -11.21918 -11.21907 -11.21807 -11.21654 -11.21626
 Alpha  occ. eigenvalues --  -11.21620 -11.21234 -11.21208 -11.21105 -11.21031
 Alpha  occ. eigenvalues --  -11.20701  -1.22642  -1.14884  -1.06187  -1.03494
 Alpha  occ. eigenvalues --   -1.02909  -1.02374  -0.95506  -0.92601  -0.89369
 Alpha  occ. eigenvalues --   -0.86178  -0.83549  -0.79380  -0.78526  -0.77521
 Alpha  occ. eigenvalues --   -0.72825  -0.68386  -0.65470  -0.65325  -0.62171
 Alpha  occ. eigenvalues --   -0.61030  -0.59859  -0.58694  -0.58309  -0.57563
 Alpha  occ. eigenvalues --   -0.56816  -0.54977  -0.54528  -0.53526  -0.52976
 Alpha  occ. eigenvalues --   -0.51945  -0.51797  -0.51226  -0.49506  -0.48060
 Alpha  occ. eigenvalues --   -0.47450  -0.45862  -0.45515  -0.45501  -0.44649
 Alpha  occ. eigenvalues --   -0.43884  -0.42542  -0.40340  -0.39824  -0.39021
 Alpha  occ. eigenvalues --   -0.33005
 Alpha virt. eigenvalues --    0.12728   0.14630   0.14983   0.15722   0.17088
 Alpha virt. eigenvalues --    0.17313   0.17615   0.17880   0.19382   0.20146
 Alpha virt. eigenvalues --    0.20634   0.20981   0.21273   0.22543   0.23431

 Mulliken atomic charges:
              1
     1  C   -0.055503
     2  C   -0.242656
     3  C   -0.085897
     4  C    0.101390
     5  C   -0.014105
     6  C   -0.247114
     7  C   -0.242695
     8  C   -0.057704
     9  C   -0.240995
    10  C   -0.213073
    11  C   -0.219801
    12  C   -0.211827
    13  C   -0.199805
    14  C   -0.077839
    15  N   -0.263721
    16  C   -0.225483
    17  H    0.095935
    18  H    0.107769
    19  H    0.104116
    20  H    0.111509
    21  H    0.087908
    22  H    0.106457
    23  H    0.100611
    24  H    0.100240
    25  H    0.111339
    26  H    0.095836
    27  H    0.099987
    28  H    0.123683
    29  H    0.094873
    30  H    0.093831
    31  H    0.104825
    32  H    0.117019
    33  H    0.104275
    34  H    0.091145
    35  H    0.097797
    36  H    0.093024
    37  H    0.080721
    38  H    0.096949
    39  H    0.105442
    40  H    0.093553
    41  H    0.077984
 Sum of Mulliken atomic charges =   0.00000

 Dipole moment (field-independent basis, Debye):
    X=             -0.5073    Y=             -0.3963    Z=             -0.6334  Tot=              0.9031
 Quadrupole moment (field-independent basis, Debye-Ang):
   XX=           -101.5107   YY=           -101.9833   ZZ=           -103.0823
   XY=             -0.0103   XZ=             -0.2740   YZ=             -1.5178

 Normal termination of Gaussian 09 at Tue Jun 21 23:30:47 2016.
