 Gaussian 09, Revision A.01,
 Gaussian 09:  EM64L-G09RevA.01  8-May-2009

 -------------
 # mp2/cc-pVTZ
 -------------

 ---------------------------
 N-methylpyrrolidine-nlp.hin
 ---------------------------
 Symbolic Z-matrix:
 Charge =  0 Multiplicity = 1

                         Standard orientation:
 ---------------------------------------------------------------------
 Center     Atomic      Atomic             Coordinates (Angstroms)
 Number     Number       Type             X           Y           Z
 ---------------------------------------------------------------------
      1          6           0       -1.490573    0.770306   -0.058762
      2          6           0       -1.490575   -0.770306   -0.058752
      3          6           0       -0.018066   -1.149228    0.161948
      4          6           0       -0.018064    1.149228    0.161955
      5          7           0        0.708063    0.000000   -0.334361
      6          6           0        2.119899   -0.000002   -0.024478
      7          1           0       -1.846112   -1.156741   -1.044158
      8          1           0       -2.147032   -1.193871    0.738369
      9          1           0        0.275033   -2.073610   -0.388859
     10          1           0        0.181534   -1.292924    1.251342
     11          1           0        0.181531    1.292920    1.251349
     12          1           0        0.275042    2.073618   -0.388848
     13          1           0        2.298613    0.000002    1.075660
     14          1           0        2.601181   -0.900112   -0.469977
     15          1           0        2.601181    0.900114   -0.469977
     16          1           0       -2.147042    1.193894    0.738344
     17          1           0       -1.846098    1.156726   -1.044186
 ---------------------------------------------------------------------

 SCF Done:  E(RHF) =  -250.257411221     A.U. after   11 cycles
 E2 =    -0.1077505219D+01 EUMP2 =    -0.25133491643942D+03

 The electronic state is 1-A.
 Alpha  occ. eigenvalues --  -15.53756 -11.24505 -11.24504 -11.24491 -11.22210
 Alpha  occ. eigenvalues --  -11.22152  -1.24158  -1.04463  -0.97028  -0.90535
 Alpha  occ. eigenvalues --   -0.77935  -0.77540  -0.66388  -0.65044  -0.59917
 Alpha  occ. eigenvalues --   -0.58862  -0.55515  -0.52356  -0.49661  -0.49398
 Alpha  occ. eigenvalues --   -0.47257  -0.46535  -0.45017  -0.34930
 Alpha virt. eigenvalues --    0.13820   0.15952   0.17227   0.17552   0.20396
 Alpha virt. eigenvalues --    0.20817   0.21361   0.22036   0.24549   0.25736
 Alpha virt. eigenvalues --    0.27342   0.27751   0.30922   0.32112   0.33342

 Mulliken atomic charges:
              1
     1  C   -0.178723
     2  C   -0.178726
     3  C   -0.064095
     4  C   -0.064094
     5  N   -0.214872
     6  C   -0.171057
     7  H    0.091141
     8  H    0.091755
     9  H    0.087141
    10  H    0.050324
    11  H    0.050326
    12  H    0.087139
    13  H    0.052919
    14  H    0.088966
    15  H    0.088964
    16  H    0.091753
    17  H    0.091138
 Sum of Mulliken atomic charges =   0.00000

 Dipole moment (field-independent basis, Debye):
    X=             -0.0762    Y=              0.0000    Z=              0.5362  Tot=              0.5416
 Quadrupole moment (field-independent basis, Debye-Ang):
   XX=            -39.0050   YY=            -38.8408   ZZ=            -40.6722
   XY=              0.0000   XZ=             -0.0413   YZ=              0.0001

 Normal termination of Gaussian 09 at Sat Jun  4 03:29:55 2016.
