 Gaussian 09, Revision E.01,
 Gaussian 09:  ES64L-G09RevE.01 30-Nov-2015

 -----------------
 # opt mp2/cc-pVTZ
 -----------------

 ------------------------
 N-me-piperidine ch-eq-lp
 ------------------------
 Symbolic Z-matrix:
 Charge =  0 Multiplicity = 1

 SCF Done:  E(RHF) =  -289.310349230     A.U. after   11 cycles
 E2 =    -0.1255143451D+01 EUMP2 =    -0.29056549268090D+03
 SCF Done:  E(RHF) =  -289.317481841     A.U. after   10 cycles
 E2 =    -0.1253201064D+01 EUMP2 =    -0.29057068290500D+03
 SCF Done:  E(RHF) =  -289.317617960     A.U. after    8 cycles
 E2 =    -0.1253173282D+01 EUMP2 =    -0.29057079124219D+03
 SCF Done:  E(RHF) =  -289.317460217     A.U. after    8 cycles
 E2 =    -0.1253345026D+01 EUMP2 =    -0.29057080524259D+03
 SCF Done:  E(RHF) =  -289.317445566     A.U. after    6 cycles
 E2 =    -0.1253360328D+01 EUMP2 =    -0.29057080589412D+03
 Optimization completed.
    -- Stationary point found.

                         Standard orientation:
 ---------------------------------------------------------------------
 Center     Atomic      Atomic             Coordinates (Angstroms)
 Number     Number       Type             X           Y           Z
 ---------------------------------------------------------------------
      1          6           0        1.876840    0.000001    0.255875
      2          6           0        1.146823    1.247134   -0.228527
      3          6           0        1.146823   -1.247136   -0.228528
      4          6           0       -0.315970    1.194923    0.182629
      5          6           0       -0.315968   -1.194921    0.182628
      6          7           0       -0.960947    0.000001   -0.343955
      7          6           0       -2.369922   -0.000000    0.001367
      8          1           0        1.900353   -0.000003    1.349335
      9          1           0        2.912001   -0.000002   -0.086556
     10          1           0        1.200266    1.305164   -1.317186
     11          1           0        1.608372    2.148968    0.175894
     12          1           0        1.608371   -2.148969    0.175896
     13          1           0        1.200265   -1.305166   -1.317188
     14          1           0       -0.851707    2.065477   -0.198402
     15          1           0       -0.388247    1.221996    1.286160
     16          1           0       -0.388245   -1.221995    1.286161
     17          1           0       -0.851709   -2.065477   -0.198395
     18          1           0       -2.533740    0.000004    1.091019
     19          1           0       -2.850557    0.883608   -0.415863
     20          1           0       -2.850550   -0.883617   -0.415852
 ---------------------------------------------------------------------

 The electronic state is 1-A.
 Alpha  occ. eigenvalues --  -15.53892 -11.23875 -11.23874 -11.23522 -11.21266
 Alpha  occ. eigenvalues --  -11.21092 -11.21080  -1.23295  -1.07062  -1.01253
 Alpha  occ. eigenvalues --   -0.93093  -0.84480  -0.82990  -0.75432  -0.65823
 Alpha  occ. eigenvalues --   -0.62359  -0.62256  -0.60805  -0.57675  -0.55118
 Alpha  occ. eigenvalues --   -0.53352  -0.52985  -0.49903  -0.48546  -0.46332
 Alpha  occ. eigenvalues --   -0.44064  -0.43911  -0.35467
 Alpha virt. eigenvalues --    0.14389   0.15885   0.16533   0.16734   0.19726
 Alpha virt. eigenvalues --    0.20502   0.21388   0.22559   0.22723   0.23533
 Alpha virt. eigenvalues --    0.24724   0.26465   0.27444   0.28127   0.30844

 Mulliken charges:
               1
     1  C   -0.193778
     2  C   -0.185550
     3  C   -0.185550
     4  C   -0.077812
     5  C   -0.077812
     6  N   -0.228403
     7  C   -0.188009
     8  H    0.088927
     9  H    0.108070
    10  H    0.090478
    11  H    0.103306
    12  H    0.103306
    13  H    0.090479
    14  H    0.096064
    15  H    0.058308
    16  H    0.058307
    17  H    0.096064
    18  H    0.054954
    19  H    0.094327
    20  H    0.094327
 Sum of Mulliken charges =  -0.00000

 Dipole moment (field-independent basis, Debye):
    X=              0.0568    Y=             -0.0000    Z=              0.6163  Tot=              0.6189
 Quadrupole moment (field-independent basis, Debye-Ang):
   XX=            -45.3441   YY=            -44.9193   ZZ=            -47.6761
   XY=             -0.0000   XZ=             -0.3755   YZ=             -0.0000

 Normal termination of Gaussian 09 at Tue Jul 17 15:41:41 2018.
