 Gaussian 09, Revision E.01,
 Gaussian 09:  ES64L-G09RevE.01 30-Nov-2015

 -------------
 # mp2/cc-pVTZ
 -------------

 -----------------------
 N_Me_Acetamide_ts_b3lyp
 -----------------------
 Symbolic Z-matrix:
 Charge =  0 Multiplicity = 1

                         Standard orientation:
 ---------------------------------------------------------------------
 Center     Atomic      Atomic             Coordinates (Angstroms)
 Number     Number       Type             X           Y           Z
 ---------------------------------------------------------------------
      1          6           0       -1.367948   -1.026835   -0.087692
      2          6           0       -0.523894    0.221052    0.087767
      3          7           0        0.752630    0.022021    0.566521
      4          6           0        1.853873   -0.187820   -0.340404
      5          8           0       -0.953851    1.318949   -0.174546
      6          1           0       -0.883469   -1.718099   -0.814746
      7          1           0       -1.483729   -1.550385    0.887679
      8          1           0       -2.383564   -0.774622   -0.471681
      9          1           0        0.885022    0.034620    1.579585
     10          1           0        1.528716   -0.149131   -1.405626
     11          1           0        2.621922    0.598618   -0.166872
     12          1           0        2.305315   -1.185121   -0.135648
 ---------------------------------------------------------------------

 SCF Done:  E(RHF) =  -247.054924303     A.U. after   14 cycles
 E2 =    -0.9480545039D+00 EUMP2 =    -0.24800297880651D+03

 The electronic state is 1-A.
 Alpha  occ. eigenvalues --  -20.53982 -15.54376 -11.34882 -11.27102 -11.23803
 Alpha  occ. eigenvalues --   -1.39394  -1.21238  -0.99863  -0.92564  -0.77254
 Alpha  occ. eigenvalues --   -0.68029  -0.64460  -0.64096  -0.58498  -0.57687
 Alpha  occ. eigenvalues --   -0.55983  -0.53899  -0.48807  -0.42951  -0.37120
 Alpha virt. eigenvalues --    0.12070   0.15124   0.16146   0.17813   0.20896
 Alpha virt. eigenvalues --    0.21569   0.22234   0.23495   0.28122   0.29896
 Alpha virt. eigenvalues --    0.34501   0.38051   0.38867   0.40376   0.42602

 Mulliken charges:
               1
     1  C   -0.260434
     2  C    0.293804
     3  N   -0.289269
     4  C   -0.146067
     5  O   -0.338251
     6  H    0.092585
     7  H    0.088231
     8  H    0.111477
     9  H    0.174650
    10  H    0.095770
    11  H    0.097367
    12  H    0.080136
 Sum of Mulliken charges =  -0.00000

 Dipole moment (field-independent basis, Debye):
    X=              1.4897    Y=             -2.9056    Z=              0.8479  Tot=              3.3735
 Quadrupole moment (field-independent basis, Debye-Ang):
   XX=            -30.3277   YY=            -35.7772   ZZ=            -27.7914
   XY=              3.0891   XZ=             -0.2671   YZ=              0.7979

 Normal termination of Gaussian 09 at Fri Jul 27 23:50:23 2018.
