 Gaussian 09, Revision E.01,
 Gaussian 09:  ES64L-G09RevE.01 30-Nov-2015

 ------------------------------
 # opt=modredundant mp2/cc-pVTZ
 ------------------------------

 -----------------------
 N-me-piperidine-sofa-eq
 -----------------------
 Symbolic Z-matrix:
 Charge =  0 Multiplicity = 1

 SCF Done:  E(RHF) =  -289.291477334     A.U. after   11 cycles
 E2 =    -0.1254730239D+01 EUMP2 =    -0.29054620757379D+03
 SCF Done:  E(RHF) =  -289.299532992     A.U. after   10 cycles
 E2 =    -0.1252976152D+01 EUMP2 =    -0.29055250914415D+03
 SCF Done:  E(RHF) =  -289.300073638     A.U. after    9 cycles
 E2 =    -0.1252943779D+01 EUMP2 =    -0.29055301741761D+03
 SCF Done:  E(RHF) =  -289.300016721     A.U. after    9 cycles
 E2 =    -0.1253205867D+01 EUMP2 =    -0.29055322258757D+03
 SCF Done:  E(RHF) =  -289.300080299     A.U. after    9 cycles
 E2 =    -0.1253273208D+01 EUMP2 =    -0.29055335350720D+03
 SCF Done:  E(RHF) =  -289.300281603     A.U. after    9 cycles
 E2 =    -0.1253186097D+01 EUMP2 =    -0.29055346770004D+03
 SCF Done:  E(RHF) =  -289.300312775     A.U. after    8 cycles
 E2 =    -0.1253163706D+01 EUMP2 =    -0.29055347648046D+03
 SCF Done:  E(RHF) =  -289.300344898     A.U. after    7 cycles
 E2 =    -0.1253131987D+01 EUMP2 =    -0.29055347688488D+03
 SCF Done:  E(RHF) =  -289.300350578     A.U. after    6 cycles
 E2 =    -0.1253126458D+01 EUMP2 =    -0.29055347703582D+03
 Optimization completed.
    -- Stationary point found.

                         Standard orientation:
 ---------------------------------------------------------------------
 Center     Atomic      Atomic             Coordinates (Angstroms)
 Number     Number       Type             X           Y           Z
 ---------------------------------------------------------------------
      1          6           0       -1.148008    1.307607    0.019984
      2          6           0       -1.929336   -0.021844   -0.131816
      3          6           0       -1.105271   -1.323911   -0.110052
      4          6           0        0.317523   -1.135532    0.377329
      5          7           0        0.926636   -0.027674   -0.344530
      6          6           0        0.372630    1.203408    0.193674
      7          1           0       -1.550284    1.878772    0.854610
      8          1           0       -1.334405    1.905685   -0.871295
      9          1           0       -2.508111    0.012732   -1.051596
     10          1           0       -2.662204   -0.071561    0.673596
     11          1           0       -1.035109   -1.719638   -1.123105
     12          1           0       -1.610213   -2.078500    0.493118
     13          1           0        0.893658   -2.041295    0.185188
     14          1           0        0.351239   -0.949330    1.466186
     15          6           0        2.366219   -0.027074   -0.156575
     16          1           0        0.854503    2.048522   -0.298035
     17          1           0        0.629908    1.269870    1.267101
     18          1           0        2.805309    0.814025   -0.691141
     19          1           0        2.646923    0.056363    0.905630
     20          1           0        2.789791   -0.947857   -0.553812
 ---------------------------------------------------------------------

 The electronic state is 1-A.
 Alpha  occ. eigenvalues --  -15.53962 -11.23913 -11.23787 -11.23566 -11.21320
 Alpha  occ. eigenvalues --  -11.21264 -11.20980  -1.23406  -1.05873  -1.01128
 Alpha  occ. eigenvalues --   -0.93376  -0.84717  -0.83613  -0.73706  -0.65431
 Alpha  occ. eigenvalues --   -0.64051  -0.62465  -0.60399  -0.57247  -0.54420
 Alpha  occ. eigenvalues --   -0.52873  -0.52537  -0.50342  -0.48657  -0.45342
 Alpha  occ. eigenvalues --   -0.43859  -0.43557  -0.35575
 Alpha virt. eigenvalues --    0.13733   0.15975   0.16773   0.17223   0.19597
 Alpha virt. eigenvalues --    0.20392   0.20671   0.21564   0.23833   0.24301
 Alpha virt. eigenvalues --    0.25326   0.26200   0.27723   0.29237   0.31790

 Mulliken charges:
               1
     1  C   -0.188678
     2  C   -0.197116
     3  C   -0.166558
     4  C   -0.079042
     5  N   -0.227208
     6  C   -0.073192
     7  H    0.100316
     8  H    0.094735
     9  H    0.102827
    10  H    0.093990
    11  H    0.088288
    12  H    0.098709
    13  H    0.096367
    14  H    0.057922
    15  C   -0.188961
    16  H    0.091803
    17  H    0.050729
    18  H    0.094592
    19  H    0.054589
    20  H    0.095885
 Sum of Mulliken charges =  -0.00000

 Dipole moment (field-independent basis, Debye):
    X=              0.0540    Y=              0.0441    Z=              0.6266  Tot=              0.6304
 Quadrupole moment (field-independent basis, Debye-Ang):
   XX=            -45.3177   YY=            -45.0346   ZZ=            -47.3027
   XY=             -0.0875   XZ=             -0.0522   YZ=             -0.3439

 Normal termination of Gaussian 09 at Tue Jul 17 16:54:58 2018.
