 Gaussian 09, Revision A.01,
 Gaussian 09:  EM64L-G09RevA.01  8-May-2009

 -------------
 # mp2/cc-pVTZ
 -------------

 ---------------
 propane-low.hin
 ---------------
 Symbolic Z-matrix:
 Charge =  0 Multiplicity = 1

                         Standard orientation:
 ---------------------------------------------------------------------
 Center     Atomic      Atomic             Coordinates (Angstroms)
 Number     Number       Type             X           Y           Z
 ---------------------------------------------------------------------
      1          6           0        1.269566   -0.264230    0.000000
      2          6           0        0.000000    0.596884    0.000000
      3          6           0       -1.269565   -0.264229    0.000000
      4          1           0        2.184826    0.372152    0.000000
      5          1           0        1.310986   -0.918200    0.901390
      6          1           0        1.310980   -0.918208   -0.901390
      7          1           0        0.000003    1.258980    0.899210
      8          1           0       -0.000006    1.258985   -0.899200
      9          1           0       -2.184821    0.372155    0.000000
     10          1           0       -1.310987   -0.918200   -0.901390
     11          1           0       -1.310985   -0.918214    0.901390
 ---------------------------------------------------------------------

 SCF Done:  E(RHF) =  -118.303290390     A.U. after   10 cycles
 E2 =    -0.5453086871D+00 EUMP2 =    -0.11884859907672D+03

 The electronic state is 1-A.
 Alpha  occ. eigenvalues --  -11.22563 -11.21849 -11.21845  -1.04687  -0.91675
 Alpha  occ. eigenvalues --   -0.79112  -0.61834  -0.59083  -0.54463  -0.52515
 Alpha  occ. eigenvalues --   -0.47275  -0.47047  -0.46502
 Alpha virt. eigenvalues --    0.13953   0.17674   0.18288   0.18864   0.21723
 Alpha virt. eigenvalues --    0.23126   0.24153   0.26080   0.29559   0.36537
 Alpha virt. eigenvalues --    0.37943   0.38131   0.40291   0.43962   0.44145

 Mulliken atomic charges:
              1
     1  C   -0.267958
     2  C   -0.135387
     3  C   -0.267958
     4  H    0.091506
     5  H    0.081621
     6  H    0.081619
     7  H    0.080905
     8  H    0.080908
     9  H    0.091507
    10  H    0.081621
    11  H    0.081617
 Sum of Mulliken atomic charges =   0.00000

 Dipole moment (field-independent basis, Debye):
    X=              0.0000    Y=              0.0810    Z=              0.0000  Tot=              0.0810
 Quadrupole moment (field-independent basis, Debye-Ang):
   XX=            -22.7406   YY=            -22.2292   ZZ=            -21.6303
   XY=              0.0000   XZ=              0.0000   YZ=              0.0000

 Normal termination of Gaussian 09 at Sat Jun  4 03:11:17 2016.
