 Gaussian 09, Revision A.01,
 Gaussian 09:  EM64L-G09RevA.01  8-May-2009

 -------------
 # mp2/cc-pVTZ
 -------------

 -------------------
 propene-H-H-ecl.hin
 -------------------
 Symbolic Z-matrix:
 Charge =  0 Multiplicity = 1

                         Standard orientation:
 ---------------------------------------------------------------------
 Center     Atomic      Atomic             Coordinates (Angstroms)
 Number     Number       Type             X           Y           Z
 ---------------------------------------------------------------------
      1          6           0        1.227648   -0.164908    0.000000
      2          6           0       -0.133157    0.476655    0.000000
      3          6           0       -1.271322   -0.231172    0.000001
      4          1           0        1.358649   -0.800863   -0.905016
      5          1           0        2.033941    0.603908   -0.000011
      6          1           0        1.358626   -0.800851    0.905039
      7          1           0       -0.182186    1.579493   -0.000005
      8          1           0       -2.254231    0.267623    0.000003
      9          1           0       -1.253817   -1.332755   -0.000019
 ---------------------------------------------------------------------

 SCF Done:  E(RHF) =  -117.109120220     A.U. after   11 cycles
 E2 =    -0.5112789876D+00 EUMP2 =    -0.11762039920805D+03

 The electronic state is 1-A.
 Alpha  occ. eigenvalues --  -11.23613 -11.22809 -11.22088  -1.05895  -0.92344
 Alpha  occ. eigenvalues --   -0.74936  -0.63122  -0.57793  -0.56432  -0.51565
 Alpha  occ. eigenvalues --   -0.48629  -0.35478
 Alpha virt. eigenvalues --    0.14796   0.14817   0.17296   0.18427   0.22628
 Alpha virt. eigenvalues --    0.23227   0.23967   0.31033   0.35075   0.41337
 Alpha virt. eigenvalues --    0.41409   0.44896   0.47037   0.50074   0.51224

 Mulliken atomic charges:
              1
     1  C   -0.250281
     2  C   -0.120315
     3  C   -0.333294
     4  H    0.101592
     5  H    0.091349
     6  H    0.101589
     7  H    0.149365
     8  H    0.133983
     9  H    0.126013
 Sum of Mulliken atomic charges =   0.00000

 Dipole moment (field-independent basis, Debye):
    X=              0.3595    Y=              0.0318    Z=              0.0000  Tot=              0.3609
 Quadrupole moment (field-independent basis, Debye-Ang):
   XX=            -19.6714   YY=            -18.9994   ZZ=            -22.1912
   XY=              0.2309   XZ=              0.0000   YZ=              0.0000

 Normal termination of Gaussian 09 at Sat Jun  4 03:08:43 2016.
