 Gaussian 09, Revision A.01,
 Gaussian 09:  EM64L-G09RevA.01  8-May-2009

 -------------
 # mp2/cc-pVTZ
 -------------

 --------------------
 propene-H-H-anti.hin
 --------------------
 Symbolic Z-matrix:
 Charge =  0 Multiplicity = 1

                         Standard orientation:
 ---------------------------------------------------------------------
 Center     Atomic      Atomic             Coordinates (Angstroms)
 Number     Number       Type             X           Y           Z
 ---------------------------------------------------------------------
      1          6           0        1.232561    0.164377    0.000001
      2          6           0       -0.133231   -0.467543   -0.000006
      3          6           0       -1.278598    0.228840    0.000002
      4          1           0        1.183993    1.277131   -0.000104
      5          1           0        1.800903   -0.153920    0.903437
      6          1           0        1.800993   -0.154091   -0.903324
      7          1           0       -0.174854   -1.570734    0.000011
      8          1           0       -2.254879   -0.282870    0.000002
      9          1           0       -1.280547    1.330442   -0.000005
 ---------------------------------------------------------------------

 SCF Done:  E(RHF) =  -117.112820279     A.U. after   11 cycles
 E2 =    -0.5109163556D+00 EUMP2 =    -0.11762373663505D+03

 The electronic state is 1-A.
 Alpha  occ. eigenvalues --  -11.23761 -11.22974 -11.22195  -1.05886  -0.92480
 Alpha  occ. eigenvalues --   -0.75063  -0.63114  -0.57815  -0.56414  -0.51453
 Alpha  occ. eigenvalues --   -0.48911  -0.35710
 Alpha virt. eigenvalues --    0.14673   0.16269   0.17621   0.18342   0.21756
 Alpha virt. eigenvalues --    0.22169   0.24468   0.30791   0.38393   0.38980
 Alpha virt. eigenvalues --    0.39837   0.44856   0.47019   0.48188   0.51431

 Mulliken atomic charges:
              1
     1  C   -0.227313
     2  C   -0.108556
     3  C   -0.330786
     4  H    0.088038
     5  H    0.087498
     6  H    0.087495
     7  H    0.143208
     8  H    0.131755
     9  H    0.128661
 Sum of Mulliken atomic charges =   0.00000

 Dipole moment (field-independent basis, Debye):
    X=              0.3678    Y=             -0.0821    Z=              0.0000  Tot=              0.3768
 Quadrupole moment (field-independent basis, Debye-Ang):
   XX=            -19.6165   YY=            -18.9716   ZZ=            -22.2534
   XY=             -0.1673   XZ=              0.0000   YZ=              0.0000

 Normal termination of Gaussian 09 at Sat Jun  4 03:09:37 2016.
