 Gaussian 09, Revision A.01,
 Gaussian 09:  EM64L-G09RevA.01  8-May-2009

 -------------
 # mp2/cc-pVTZ
 -------------

 ---------------
 propane-ecl.hin
 ---------------
 Symbolic Z-matrix:
 Charge =  0 Multiplicity = 1

                         Standard orientation:
 ---------------------------------------------------------------------
 Center     Atomic      Atomic             Coordinates (Angstroms)
 Number     Number       Type             X           Y           Z
 ---------------------------------------------------------------------
      1          6           0       -1.276409   -0.266292    0.000000
      2          6           0       -0.003516    0.590591    0.000000
      3          6           0        1.278544   -0.258228    0.000002
      4          1           0       -2.189955    0.372697   -0.000041
      5          1           0       -1.320486   -0.918672   -0.902594
      6          1           0       -1.320514   -0.918615    0.902631
      7          1           0       -0.014885    1.258900   -0.894555
      8          1           0       -0.014891    1.258872    0.894560
      9          1           0        1.905351   -0.049782   -0.897864
     10          1           0        1.905349   -0.049759    0.897851
     11          1           0        1.058315   -1.350067    0.000000
 ---------------------------------------------------------------------

 SCF Done:  E(RHF) =  -118.297802302     A.U. after   10 cycles
 E2 =    -0.5455323435D+00 EUMP2 =    -0.11884333464596D+03

 The electronic state is 1-A.
 Alpha  occ. eigenvalues --  -11.22482 -11.21892 -11.21732  -1.04538  -0.91696
 Alpha  occ. eigenvalues --   -0.79189  -0.61539  -0.59211  -0.54147  -0.53034
 Alpha  occ. eigenvalues --   -0.47424  -0.46937  -0.45753
 Alpha virt. eigenvalues --    0.13934   0.17576   0.18120   0.18755   0.22579
 Alpha virt. eigenvalues --    0.22615   0.23419   0.26305   0.31717   0.35879
 Alpha virt. eigenvalues --    0.37593   0.40508   0.41199   0.41831   0.45415

 Mulliken atomic charges:
              1
     1  C   -0.271454
     2  C   -0.132591
     3  C   -0.278536
     4  H    0.089161
     5  H    0.082764
     6  H    0.082767
     7  H    0.082536
     8  H    0.082541
     9  H    0.088987
    10  H    0.088992
    11  H    0.084832
 Sum of Mulliken atomic charges =   0.00000

 Dipole moment (field-independent basis, Debye):
    X=              0.0046    Y=              0.0749    Z=              0.0000  Tot=              0.0750
 Quadrupole moment (field-independent basis, Debye-Ang):
   XX=            -22.7702   YY=            -22.2163   ZZ=            -21.5928
   XY=              0.0015   XZ=              0.0000   YZ=              0.0000

 Normal termination of Gaussian 09 at Sat Jun  4 03:13:00 2016.
