 Gaussian 09, Revision C.01,
 Gaussian 09:  AM64L-G09RevC.01 23-Sep-2011

 -------------
 # mp2/cc-pVTZ
 -------------

 99/5=1,9=1/99;
 ----------
 tBu-CMe2Cl
 ----------
 Charge =  0 Multiplicity = 1

                         Standard orientation:
 ---------------------------------------------------------------------
 Center     Atomic      Atomic             Coordinates (Angstroms)
 Number     Number       Type             X           Y           Z
 ---------------------------------------------------------------------
      1          6           0       -0.964153   -0.160660   -0.000002
      2          6           0        0.483526    0.450689    0.000000
      3          6           0        0.806943    1.278516   -1.246921
      4          6           0        0.806935    1.278527    1.246916
      5         17           0        1.717262   -0.928243    0.000006
      6          1           0        1.831368    1.626092   -1.197234
      7          1           0        0.695333    0.708100   -2.158050
      8          1           0        0.162341    2.149019   -1.297966
      9          1           0        1.831372    1.626070    1.197249
     10          1           0        0.162359    2.149050    1.297927
     11          1           0        0.695282    0.708129    2.158052
     12          6           0       -1.217989   -1.028919    1.246795
     13          6           0       -2.011940    0.973891   -0.000040
     14          6           0       -1.217957   -1.028981   -1.246761
     15          1           0       -2.216006   -1.452160    1.189272
     16          1           0       -0.514475   -1.848343    1.319754
     17          1           0       -1.167921   -0.453730    2.164341
     18          1           0       -3.004823    0.535627   -0.000059
     19          1           0       -1.941113    1.604189    0.878994
     20          1           0       -1.941071    1.604174   -0.879081
     21          1           0       -2.215951   -1.452273   -1.189205
     22          1           0       -1.167931   -0.453829   -2.164330
     23          1           0       -0.514402   -1.848371   -1.319691
 ---------------------------------------------------------------------

 SCF Done:  E(RHF) =  -733.427346909     A.U. after   13 cycles
 E2 =    -0.1440987014D+01 EUMP2 =    -0.73486833392346D+03

 The electronic state is 1-A.
 Alpha  occ. eigenvalues -- -104.80206 -11.30542 -11.25060 -11.22166 -11.22165
 Alpha  occ. eigenvalues --  -11.21742 -11.20845 -11.20844 -10.52774  -7.99432
 Alpha  occ. eigenvalues --   -7.99285  -7.99283  -1.15829  -1.07350  -1.00812
 Alpha  occ. eigenvalues --   -0.95778  -0.93682  -0.92560  -0.82864  -0.70815
 Alpha  occ. eigenvalues --   -0.65541  -0.61986  -0.61423  -0.60375  -0.59107
 Alpha  occ. eigenvalues --   -0.56431  -0.54518  -0.53615  -0.52848  -0.52175
 Alpha  occ. eigenvalues --   -0.50717  -0.49429  -0.46867  -0.46003  -0.45026
 Alpha  occ. eigenvalues --   -0.41726  -0.41703
 Alpha virt. eigenvalues --    0.13430   0.16430   0.17176   0.17261   0.18445
 Alpha virt. eigenvalues --    0.19902   0.19937   0.21328   0.22482   0.22531
 Alpha virt. eigenvalues --    0.23985   0.24558   0.26669   0.27493   0.28116

 Mulliken atomic charges:
              1
     1  C    0.035860
     2  C    0.111456
     3  C   -0.299967
     4  C   -0.299968
     5  Cl  -0.269241
     6  H    0.125560
     7  H    0.122899
     8  H    0.102252
     9  H    0.125561
    10  H    0.102254
    11  H    0.122898
    12  C   -0.328090
    13  C   -0.341603
    14  C   -0.328091
    15  H    0.105889
    16  H    0.131797
    17  H    0.101801
    18  H    0.115320
    19  H    0.111962
    20  H    0.111962
    21  H    0.105889
    22  H    0.101802
    23  H    0.131797
 Sum of Mulliken atomic charges =   0.00000

 Dipole moment (field-independent basis, Debye):
    X=             -1.7244    Y=              1.7321    Z=              0.0000  Tot=              2.4441
 Quadrupole moment (field-independent basis, Debye-Ang):
   XX=            -62.9271   YY=            -60.1432   ZZ=            -59.6688
   XY=              2.5532   XZ=              0.0000   YZ=              0.0000

 Normal termination of Gaussian 09 at Thu Jul  5 17:58:20 2018.
