 Gaussian 09, Revision C.01,
 Gaussian 09:  AM64L-G09RevC.01 23-Sep-2011

 -------------
 # mp2/cc-pVTZ
 -------------

 99/5=1,9=1/99;
 -------------
 tBu-CMe2Cl-ts
 -------------
 Charge =  0 Multiplicity = 1

                         Standard orientation:
 ---------------------------------------------------------------------
 Center     Atomic      Atomic             Coordinates (Angstroms)
 Number     Number       Type             X           Y           Z
 ---------------------------------------------------------------------
      1          6           0        1.003479    0.143026   -0.000012
      2          6           0       -0.503572   -0.441582    0.000009
      3          6           0       -0.862658   -1.263683   -1.245885
      4          6           0       -0.862628   -1.263722    1.245882
      5         17           0       -1.771275    0.951453    0.000007
      6          1           0       -1.902538   -1.592734   -1.180537
      7          1           0       -0.748245   -0.692769   -2.168813
      8          1           0       -0.229974   -2.155409   -1.307068
      9          1           0       -1.902510   -1.592774    1.180546
     10          1           0       -0.229943   -2.155451    1.307020
     11          1           0       -0.748191   -0.692843    2.168828
     12          6           0        1.792930   -0.334721    1.244096
     13          6           0        1.793027   -0.335018   -1.243940
     14          6           0        1.060230    1.687383   -0.000166
     15          1           0        2.809754    0.068510    1.194230
     16          1           0        1.349633    0.019061    2.179019
     17          1           0        1.879737   -1.424362    1.294810
     18          1           0        2.809861    0.068187   -1.194064
     19          1           0        1.879799   -1.424673   -1.294398
     20          1           0        1.349834    0.018567   -2.178987
     21          1           0        2.110068    2.001478   -0.000179
     22          1           0        0.579784    2.115131   -0.883454
     23          1           0        0.579759    2.115294    0.883025
 ---------------------------------------------------------------------

 SCF Done:  E(RHF) =  -733.410073421     A.U. after   13 cycles
 E2 =    -0.1441928701D+01 EUMP2 =    -0.73485200212141D+03

 The electronic state is 1-A.
 Alpha  occ. eigenvalues -- -104.79885 -11.31325 -11.25820 -11.22643 -11.22642
 Alpha  occ. eigenvalues --  -11.21989 -11.21987 -11.21113 -10.52428  -7.99080
 Alpha  occ. eigenvalues --   -7.98938  -7.98936  -1.14756  -1.07155  -1.00581
 Alpha  occ. eigenvalues --   -0.95865  -0.92685  -0.92128  -0.82160  -0.70612
 Alpha  occ. eigenvalues --   -0.65697  -0.62561  -0.61261  -0.58017  -0.57060
 Alpha  occ. eigenvalues --   -0.56692  -0.56254  -0.54162  -0.52468  -0.51444
 Alpha  occ. eigenvalues --   -0.50420  -0.49251  -0.46110  -0.46048  -0.44473
 Alpha  occ. eigenvalues --   -0.41436  -0.41397
 Alpha virt. eigenvalues --    0.13060   0.15943   0.16592   0.17167   0.18166
 Alpha virt. eigenvalues --    0.18968   0.20110   0.20979   0.21351   0.22385
 Alpha virt. eigenvalues --    0.24401   0.25391   0.25858   0.26485   0.26893

 Mulliken atomic charges:
              1
     1  C    0.001818
     2  C    0.102517
     3  C   -0.282062
     4  C   -0.282064
     5  Cl  -0.279971
     6  H    0.124696
     7  H    0.118627
     8  H    0.098831
     9  H    0.124697
    10  H    0.098832
    11  H    0.118629
    12  C   -0.321182
    13  C   -0.321178
    14  C   -0.290093
    15  H    0.111061
    16  H    0.112044
    17  H    0.105420
    18  H    0.111062
    19  H    0.105418
    20  H    0.112046
    21  H    0.092122
    22  H    0.119363
    23  H    0.119368
 Sum of Mulliken atomic charges =   0.00000

 Dipole moment (field-independent basis, Debye):
    X=              1.8544    Y=             -1.7909    Z=              0.0000  Tot=              2.5780
 Quadrupole moment (field-independent basis, Debye-Ang):
   XX=            -63.5033   YY=            -60.4421   ZZ=            -59.6229
   XY=              2.7393   XZ=              0.0000   YZ=             -0.0001

 Normal termination of Gaussian 09 at Fri Jul  6 11:15:47 2018.
