 Gaussian 09, Revision A.01,
 Gaussian 09:  EM64L-G09RevA.01  8-May-2009

 -------------
 # mp2/cc-pVTZ
 -------------

 ----------------------
 1,2-ethanediol-g-,g+,a
 ----------------------
 Symbolic Z-matrix:
 Charge =  0 Multiplicity = 1

                         Standard orientation:
 ---------------------------------------------------------------------
 Center     Atomic      Atomic             Coordinates (Angstroms)
 Number     Number       Type             X           Y           Z
 ---------------------------------------------------------------------
      1          6           0       -0.686716    0.603117   -0.269288
      2          6           0        0.731443    0.568765    0.274077
      3          8           0       -1.341150   -0.576424    0.216730
      4          8           0        1.450414   -0.565284   -0.192738
      5          1           0       -1.201108    1.509628    0.082351
      6          1           0       -0.661637    0.607064   -1.367393
      7          1           0        1.280343    1.452203   -0.066146
      8          1           0        0.697812    0.585743    1.373976
      9          1           0       -2.171183   -0.708275   -0.256710
     10          1           0        0.913301   -1.343987    0.013252
 ---------------------------------------------------------------------

 SCF Done:  E(RHF) =  -229.025948603     A.U. after   11 cycles
 E2 =    -0.8346637388D+00 EUMP2 =    -0.22986061234142D+03

 The electronic state is 1-A.
 Alpha  occ. eigenvalues --  -20.56483 -20.54584 -11.28256 -11.27400  -1.37085
 Alpha  occ. eigenvalues --   -1.34144  -0.99930  -0.83707  -0.71998  -0.66858
 Alpha  occ. eigenvalues --   -0.64530  -0.60072  -0.56801  -0.53071  -0.49437
 Alpha  occ. eigenvalues --   -0.45877  -0.43833
 Alpha virt. eigenvalues --    0.13410   0.16508   0.18375   0.20161   0.21184
 Alpha virt. eigenvalues --    0.23600   0.30797   0.31232   0.33392   0.40303
 Alpha virt. eigenvalues --    0.49501   0.51415   0.53578   0.55252   0.56913

 Mulliken atomic charges:
              1
     1  C    0.054598
     2  C    0.077018
     3  O   -0.435489
     4  O   -0.437176
     5  H    0.061594
     6  H    0.066108
     7  H    0.083037
     8  H    0.062291
     9  H    0.228877
    10  H    0.239143
 Sum of Mulliken atomic charges =   0.00000

 Dipole moment (field-independent basis, Debye):
    X=             -2.3092    Y=              0.9902    Z=             -0.4984  Tot=              2.5615
 Quadrupole moment (field-independent basis, Debye-Ang):
   XX=            -25.4478   YY=            -22.4852   ZZ=            -25.2746
   XY=              1.2244   XZ=              3.2817   YZ=              0.2882

 Normal termination of Gaussian 09 at Thu Sep 29 16:14:58 2016.
