 Gaussian 09, Revision A.01,
 Gaussian 09:  EM64L-G09RevA.01  8-May-2009

 -------------
 # mp2/cc-pVTZ
 -------------

 ----------------------
 1_2_DCE_t_single_point
 ----------------------
 Symbolic Z-matrix:
 Charge =  0 Multiplicity = 1

                         Standard orientation:
 ---------------------------------------------------------------------
 Center     Atomic      Atomic             Coordinates (Angstroms)
 Number     Number       Type             X           Y           Z
 ---------------------------------------------------------------------
      1          6           0        1.883682    0.160009   -0.000103
      2          7           0        2.984715   -0.207985    0.000043
      3          6           0        0.487424    0.603116    0.000020
      4          6           0       -0.487381   -0.602990   -0.000020
      5          6           0       -1.883655   -0.159932    0.000103
      6          7           0       -2.984785    0.207773   -0.000044
      7          1           0        0.314143    1.228623    0.881740
      8          1           0        0.313989    1.228805   -0.881538
      9          1           0       -0.314107   -1.228499   -0.881742
     10          1           0       -0.313949   -1.228661    0.881551
 ---------------------------------------------------------------------

 SCF Done:  E(RHF) =  -262.773768015     A.U. after   13 cycles
 E2 =    -0.1011435997D+01 EUMP2 =    -0.26378520401184D+03

 The electronic state is 1-A.
 Alpha  occ. eigenvalues --  -15.59415 -15.59415 -11.32268 -11.32213 -11.29777
 Alpha  occ. eigenvalues --  -11.29776  -1.24183  -1.23579  -1.12970  -0.98367
 Alpha  occ. eigenvalues --   -0.75502  -0.70461  -0.69481  -0.62219  -0.60146
 Alpha  occ. eigenvalues --   -0.58022  -0.56983  -0.49365  -0.48023  -0.47848
 Alpha  occ. eigenvalues --   -0.47100
 Alpha virt. eigenvalues --    0.10232   0.14094   0.14208   0.15651   0.15745
 Alpha virt. eigenvalues --    0.19515   0.20596   0.22808   0.22949   0.26209
 Alpha virt. eigenvalues --    0.31305   0.32709   0.39211   0.40593   0.40738

 Mulliken atomic charges:
              1
     1  C   -0.081385
     2  N   -0.088246
     3  C   -0.142567
     4  C   -0.142555
     5  C   -0.081391
     6  N   -0.088245
     7  H    0.156096
     8  H    0.156095
     9  H    0.156099
    10  H    0.156098
 Sum of Mulliken atomic charges =   0.00000

 Dipole moment (field-independent basis, Debye):
    X=              0.0002    Y=              0.0005    Z=              0.0000  Tot=              0.0006
 Quadrupole moment (field-independent basis, Debye-Ang):
   XX=            -63.3629   YY=            -32.8381   ZZ=            -33.4638
   XY=              4.0660   XZ=             -0.0003   YZ=              0.0000

 Normal termination of Gaussian 09 at Sat Mar 12 20:32:26 2016.
