 Gaussian 09, Revision A.01,
 Gaussian 09:  EM64L-G09RevA.01  8-May-2009

 -------------
 # mp2/cc-pVTZ
 -------------

 ---------------------------------
 1_2_ethanediol_a_a_a_single_point
 ---------------------------------
 Symbolic Z-matrix:
 Charge =  0 Multiplicity = 1

                         Standard orientation:
 ---------------------------------------------------------------------
 Center     Atomic      Atomic             Coordinates (Angstroms)
 Number     Number       Type             X           Y           Z
 ---------------------------------------------------------------------
      1          6           0       -0.574607    0.497902    0.000077
      2          8           0       -1.784382   -0.260908   -0.000014
      3          6           0        0.574609   -0.497886   -0.000013
      4          8           0        1.784385    0.260895   -0.000113
      5          1           0       -0.501526    1.136818    0.891021
      6          1           0       -0.501491    1.136993   -0.890742
      7          1           0        0.501554   -1.136907    0.890862
      8          1           0        0.501431   -1.136889   -0.890892
      9          1           0       -2.537553    0.341864   -0.000166
     10          1           0        2.537554   -0.341876    0.000543
 ---------------------------------------------------------------------

 SCF Done:  E(RHF) =  -229.023246508     A.U. after   10 cycles
 E2 =    -0.8328325894D+00 EUMP2 =    -0.22985607909746D+03

 The electronic state is 1-A.
 Alpha  occ. eigenvalues --  -20.55561 -20.55561 -11.27501 -11.27437  -1.36219
 Alpha  occ. eigenvalues --   -1.34933  -0.99535  -0.82842  -0.71554  -0.66534
 Alpha  occ. eigenvalues --   -0.66308  -0.57674  -0.57653  -0.53522  -0.47949
 Alpha  occ. eigenvalues --   -0.45464  -0.44112
 Alpha virt. eigenvalues --    0.14279   0.14411   0.19752   0.19851   0.19992
 Alpha virt. eigenvalues --    0.25340   0.30274   0.33345   0.37149   0.42096
 Alpha virt. eigenvalues --    0.46745   0.49009   0.51676   0.55089   0.55548

 Mulliken atomic charges:
              1
     1  C    0.070983
     2  O   -0.420178
     3  C    0.070987
     4  O   -0.420172
     5  H    0.062726
     6  H    0.062731
     7  H    0.062722
     8  H    0.062726
     9  H    0.223737
    10  H    0.223737
 Sum of Mulliken atomic charges =   0.00000

 Dipole moment (field-independent basis, Debye):
    X=              0.0000    Y=              0.0000    Z=              0.0010  Tot=              0.0010
 Quadrupole moment (field-independent basis, Debye-Ang):
   XX=            -20.3557   YY=            -24.9293   ZZ=            -25.1959
   XY=             -7.2655   XZ=              0.0041   YZ=             -0.0007

 Normal termination of Gaussian 09 at Sat Mar 12 20:34:10 2016.
