 Gaussian 09, Revision A.01,
 Gaussian 09:  EM64L-G09RevA.01  8-May-2009

 -------------
 # mp2/cc-pVTZ
 -------------

 ----------------------
 1_2_DCE_g_single_point
 ----------------------
 Symbolic Z-matrix:
 Charge =  0 Multiplicity = 1

                         Standard orientation:
 ---------------------------------------------------------------------
 Center     Atomic      Atomic             Coordinates (Angstroms)
 Number     Number       Type             X           Y           Z
 ---------------------------------------------------------------------
      1          6           0        1.548050   -0.176848    0.077154
      2          7           0        2.259954   -1.049271   -0.204595
      3          6           0        0.656888    0.937832    0.410867
      4          6           0       -0.656986    0.937889   -0.410823
      5          6           0       -1.548089   -0.176867   -0.077261
      6          7           0       -2.259816   -1.049395    0.204610
      7          1           0        0.433568    0.905131    1.482156
      8          1           0        1.190996    1.874030    0.216285
      9          1           0       -1.191092    1.874052   -0.216051
     10          1           0       -0.433626    0.905417   -1.482107
 ---------------------------------------------------------------------

 SCF Done:  E(RHF) =  -262.771675425     A.U. after   13 cycles
 E2 =    -0.1012228878D+01 EUMP2 =    -0.26378390430219D+03

 The electronic state is 1-A.
 Alpha  occ. eigenvalues --  -15.58922 -15.58921 -11.32247 -11.32192 -11.29254
 Alpha  occ. eigenvalues --  -11.29254  -1.23765  -1.22974  -1.12804  -0.98178
 Alpha  occ. eigenvalues --   -0.75351  -0.72660  -0.64870  -0.63907  -0.60927
 Alpha  occ. eigenvalues --   -0.56932  -0.56688  -0.48760  -0.47677  -0.47273
 Alpha  occ. eigenvalues --   -0.46663
 Alpha virt. eigenvalues --    0.09603   0.14127   0.14196   0.15245   0.18124
 Alpha virt. eigenvalues --    0.19890   0.20228   0.20671   0.26426   0.26480
 Alpha virt. eigenvalues --    0.29043   0.30177   0.34166   0.39697   0.44342

 Mulliken atomic charges:
              1
     1  C   -0.067034
     2  N   -0.083222
     3  C   -0.161078
     4  C   -0.161085
     5  C   -0.067029
     6  N   -0.083219
     7  H    0.154919
     8  H    0.156416
     9  H    0.156413
    10  H    0.154918
 Sum of Mulliken atomic charges =   0.00000

 Dipole moment (field-independent basis, Debye):
    X=             -0.0004    Y=              5.9644    Z=              0.0001  Tot=              5.9644
 Quadrupole moment (field-independent basis, Debye-Ang):
   XX=            -49.1412   YY=            -36.2656   ZZ=            -33.2871
   XY=             -0.0003   XZ=              2.8718   YZ=              0.0000

 Normal termination of Gaussian 09 at Sat Mar 12 20:29:17 2016.
