 Gaussian 09, Revision A.01,
 Gaussian 09:  EM64L-G09RevA.01  8-May-2009

 -------------
 # mp2/cc-pVTZ
 -------------

 ---------------------------------
 1_keto_cyclodecanone_single_point
 ---------------------------------
 Symbolic Z-matrix:
 Charge =  0 Multiplicity = 1

                         Standard orientation:
 ---------------------------------------------------------------------
 Center     Atomic      Atomic             Coordinates (Angstroms)
 Number     Number       Type             X           Y           Z
 ---------------------------------------------------------------------
      1          6           0        2.095037    1.330092    0.310083
      2          6           0        2.442516   -0.000025   -0.395888
      3          6           0        2.094999   -1.330132    0.310083
      4          6           0        0.604767   -1.676235    0.521313
      5          6           0       -0.254342   -1.685752   -0.762260
      6          6           0       -1.745538   -1.328946   -0.535464
      7          6           0       -1.995895    0.000002    0.180384
      8          8           0       -2.414433    0.000012    1.329390
      9          6           0        0.604815    1.676238    0.521312
     10          6           0       -0.254299    1.685756   -0.762257
     11          6           0       -1.745503    1.328993   -0.535449
     12          1           0        2.589233    1.347855    1.291403
     13          1           0        2.561820    2.136917   -0.272956
     14          1           0        0.547313    2.664002    0.996377
     15          1           0        0.173699    0.988689    1.252885
     16          1           0        3.530172   -0.000034   -0.547524
     17          1           0        2.022557   -0.000011   -1.409578
     18          1           0        0.164415    1.003836   -1.506057
     19          1           0       -0.217102    2.679033   -1.226326
     20          1           0        2.589187   -1.347916    1.291407
     21          1           0        2.561750   -2.136979   -0.272951
     22          1           0        0.173665   -0.988662    1.252872
     23          1           0        0.547236   -2.663990    0.996394
     24          1           0       -2.253813    1.308402   -1.508978
     25          1           0       -2.223659    2.098256    0.079070
     26          1           0       -0.217185   -2.679042   -1.226302
     27          1           0        0.164392   -1.003856   -1.506070
     28          1           0       -2.223715   -2.098185    0.079066
     29          1           0       -2.253839   -1.308341   -1.508997
 ---------------------------------------------------------------------

 SCF Done:  E(RHF) =  -464.173163943     A.U. after   13 cycles
 E2 =    -0.1950311050D+01 EUMP2 =    -0.46612347499368D+03

 The electronic state is 1-A.
 Alpha  occ. eigenvalues --  -20.53773 -11.32398 -11.23494 -11.23492 -11.23288
 Alpha  occ. eigenvalues --  -11.23287 -11.22338 -11.22321 -11.22231 -11.22053
 Alpha  occ. eigenvalues --  -11.22053  -1.37377  -1.10312  -1.06810  -1.05445
 Alpha  occ. eigenvalues --   -0.98315  -0.95692  -0.87127  -0.86379  -0.79568
 Alpha  occ. eigenvalues --   -0.76111  -0.72066  -0.66250  -0.64375  -0.63559
 Alpha  occ. eigenvalues --   -0.61631  -0.60710  -0.59540  -0.57564  -0.56740
 Alpha  occ. eigenvalues --   -0.56200  -0.53235  -0.53011  -0.51280  -0.49879
 Alpha  occ. eigenvalues --   -0.49318  -0.47646  -0.46463  -0.46226  -0.44688
 Alpha  occ. eigenvalues --   -0.44467  -0.43718  -0.39612
 Alpha virt. eigenvalues --    0.12153   0.14020   0.14837   0.15684   0.16340
 Alpha virt. eigenvalues --    0.17985   0.18521   0.19318   0.19585   0.20819
 Alpha virt. eigenvalues --    0.21852   0.22962   0.23596   0.23899   0.24946

 Mulliken atomic charges:
              1
     1  C   -0.187396
     2  C   -0.234801
     3  C   -0.187395
     4  C   -0.218617
     5  C   -0.241145
     6  C   -0.192707
     7  C    0.272233
     8  O   -0.382983
     9  C   -0.218616
    10  C   -0.241145
    11  C   -0.192706
    12  H    0.103560
    13  H    0.100120
    14  H    0.120629
    15  H    0.116401
    16  H    0.121678
    17  H    0.094887
    18  H    0.101163
    19  H    0.124343
    20  H    0.103560
    21  H    0.100120
    22  H    0.116400
    23  H    0.120629
    24  H    0.114383
    25  H    0.123755
    26  H    0.124344
    27  H    0.101165
    28  H    0.123755
    29  H    0.114387
 Sum of Mulliken atomic charges =   0.00000

 Dipole moment (field-independent basis, Debye):
    X=              1.6397    Y=             -0.0001    Z=             -2.8027  Tot=              3.2471
 Quadrupole moment (field-independent basis, Debye-Ang):
   XX=            -75.8163   YY=            -67.7803   ZZ=            -73.9101
   XY=              0.0002   XZ=              7.7395   YZ=              0.0000

 Normal termination of Gaussian 09 at Sat Mar 12 21:39:24 2016.
