 Gaussian 09, Revision A.01,
 Gaussian 09:  EM64L-G09RevA.01  8-May-2009

 -------------
 # mp2/cc-pVTZ
 -------------

 --------------------------
 1_propanol_aa_single_point
 --------------------------
 Symbolic Z-matrix:
 Charge =  0 Multiplicity = 1

                         Standard orientation:
 ---------------------------------------------------------------------
 Center     Atomic      Atomic             Coordinates (Angstroms)
 Number     Number       Type             X           Y           Z
 ---------------------------------------------------------------------
      1          6           0       -1.903045    0.143973   -0.000006
      2          6           0       -0.524079   -0.525158    0.000005
      3          6           0        0.615309    0.484712    0.000004
      4          8           0        1.851857   -0.234878   -0.000009
      5          1           0        0.544346    1.130012    0.889755
      6          1           0       -0.415304   -1.171089   -0.879706
      7          1           0       -0.415312   -1.171078    0.879727
      8          1           0       -2.701547   -0.604807   -0.000005
      9          1           0       -2.042734    0.775907    0.885180
     10          1           0       -2.042719    0.775908   -0.885191
     11          1           0        0.544350    1.130033   -0.889732
     12          1           0        2.584947    0.392977    0.000022
 ---------------------------------------------------------------------

 SCF Done:  E(RHF) =  -193.189443035     A.U. after   11 cycles
 E2 =    -0.7760477357D+00 EUMP2 =    -0.19396549077078D+03

 The electronic state is 1-A.
 Alpha  occ. eigenvalues --  -20.54925 -11.27275 -11.21843 -11.21675  -1.34866
 Alpha  occ. eigenvalues --   -1.04827  -0.91329  -0.80159  -0.68429  -0.65098
 Alpha  occ. eigenvalues --   -0.59458  -0.57034  -0.52740  -0.50328  -0.48406
 Alpha  occ. eigenvalues --   -0.46870  -0.43952
 Alpha virt. eigenvalues --    0.14057   0.15036   0.18611   0.18795   0.20762
 Alpha virt. eigenvalues --    0.23390   0.24082   0.25614   0.29732   0.34695
 Alpha virt. eigenvalues --    0.35697   0.40211   0.40578   0.42174   0.45891

 Mulliken atomic charges:
              1
     1  C   -0.301766
     2  C   -0.156544
     3  C    0.085218
     4  O   -0.410991
     5  H    0.051130
     6  H    0.095293
     7  H    0.095292
     8  H    0.104739
     9  H    0.085429
    10  H    0.085430
    11  H    0.051130
    12  H    0.215640
 Sum of Mulliken atomic charges =   0.00000

 Dipole moment (field-independent basis, Debye):
    X=             -0.2079    Y=              1.5751    Z=              0.0001  Tot=              1.5888
 Quadrupole moment (field-independent basis, Debye-Ang):
   XX=            -25.1624   YY=            -26.7505   ZZ=            -26.6604
   XY=              4.0032   XZ=              0.0001   YZ=              0.0000

 Normal termination of Gaussian 09 at Sat Mar 12 21:42:07 2016.
