 Gaussian 09, Revision A.01,
 Gaussian 09:  EM64L-G09RevA.01  8-May-2009

 -------------
 # mp2/cc-pVTZ
 -------------

 --------------------------
 1_propanol_ga_single_point
 --------------------------
 Symbolic Z-matrix:
 Charge =  0 Multiplicity = 1

                         Standard orientation:
 ---------------------------------------------------------------------
 Center     Atomic      Atomic             Coordinates (Angstroms)
 Number     Number       Type             X           Y           Z
 ---------------------------------------------------------------------
      1          6           0        1.553923   -0.514682    0.128284
      2          6           0        0.635402    0.637939   -0.292184
      3          6           0       -0.767497    0.545706    0.295316
      4          8           0       -1.397279   -0.635227   -0.214750
      5          1           0       -1.347697    1.438320    0.017316
      6          1           0        0.549900    0.670404   -1.385695
      7          1           0        1.067741    1.597805    0.020517
      8          1           0        2.548154   -0.407328   -0.318437
      9          1           0        1.678669   -0.542154    1.217792
     10          1           0        1.140405   -1.476828   -0.186611
     11          1           0       -0.711434    0.504982    1.394743
     12          1           0       -2.278479   -0.717156    0.169883
 ---------------------------------------------------------------------

 SCF Done:  E(RHF) =  -193.189352618     A.U. after   11 cycles
 E2 =    -0.7765537431D+00 EUMP2 =    -0.19396590636069D+03

 The electronic state is 1-A.
 Alpha  occ. eigenvalues --  -20.54951 -11.27322 -11.21915 -11.20734  -1.34901
 Alpha  occ. eigenvalues --   -1.04369  -0.91465  -0.79382  -0.69592  -0.63762
 Alpha  occ. eigenvalues --   -0.58136  -0.57651  -0.53442  -0.49735  -0.48058
 Alpha  occ. eigenvalues --   -0.46590  -0.43814
 Alpha virt. eigenvalues --    0.13832   0.16603   0.17945   0.18805   0.21607
 Alpha virt. eigenvalues --    0.22564   0.24069   0.25637   0.30207   0.33062
 Alpha virt. eigenvalues --    0.36607   0.39942   0.40376   0.42863   0.45104

 Mulliken atomic charges:
              1
     1  C   -0.287599
     2  C   -0.160606
     3  C    0.064712
     4  O   -0.418645
     5  H    0.069027
     6  H    0.092466
     7  H    0.086078
     8  H    0.095471
     9  H    0.078725
    10  H    0.108667
    11  H    0.052938
    12  H    0.218768
 Sum of Mulliken atomic charges =   0.00000

 Dipole moment (field-independent basis, Debye):
    X=             -0.6964    Y=              1.0465    Z=              1.0190  Tot=              1.6181
 Quadrupole moment (field-independent basis, Debye-Ang):
   XX=            -22.9893   YY=            -27.3575   ZZ=            -26.8997
   XY=              0.0183   XZ=             -2.0396   YZ=             -0.5473

 Normal termination of Gaussian 09 at Sat Mar 12 21:44:46 2016.
