 Gaussian 09, Revision A.01,
 Gaussian 09:  EM64L-G09RevA.01  8-May-2009

 -------------
 # mp2/cc-pVTZ
 -------------

 -------------------------------------------
 2_5_dimethyl_1_3_dioxane_eq_ax_single_point
 -------------------------------------------
 Symbolic Z-matrix:
 Charge =  0 Multiplicity = 1

                         Standard orientation:
 ---------------------------------------------------------------------
 Center     Atomic      Atomic             Coordinates (Angstroms)
 Number     Number       Type             X           Y           Z
 ---------------------------------------------------------------------
      1          6           0       -1.291497   -0.000027   -0.260239
      2          8           0       -0.564976   -1.170783    0.069210
      3          6           0        0.684003   -1.237011   -0.624774
      4          6           0        1.547420    0.000046   -0.328236
      5          6           0        0.683964    1.237071   -0.624692
      6          8           0       -0.565027    1.170815    0.069255
      7          6           0        2.095130   -0.000057    1.105628
      8          6           0       -2.586211   -0.000042    0.520710
      9          1           0        1.167230   -2.159935   -0.292474
     10          1           0        0.494532   -1.316630   -1.708677
     11          1           0        2.389913    0.000115   -1.035217
     12          1           0        0.494524    1.316729   -1.708602
     13          1           0        1.167186    2.159989   -0.292358
     14          1           0       -1.473159   -0.000015   -1.353399
     15          1           0       -2.368122   -0.000099    1.592111
     16          1           0       -3.169401    0.891413    0.275841
     17          1           0       -3.169469   -0.891431    0.275763
     18          1           0        1.280771   -0.000232    1.834977
     19          1           0        2.714675   -0.885548    1.286834
     20          1           0        2.714488    0.885514    1.287091
 ---------------------------------------------------------------------

 SCF Done:  E(RHF) =  -384.049118206     A.U. after   12 cycles
 E2 =    -0.1503813523D+01 EUMP2 =    -0.38555293172857D+03

 The electronic state is 1-A.
 Alpha  occ. eigenvalues --  -20.55546 -20.55544 -11.32910 -11.27819 -11.27819
 Alpha  occ. eigenvalues --  -11.23483 -11.21357 -11.21219  -1.41307  -1.33511
 Alpha  occ. eigenvalues --   -1.08813  -1.00134  -0.92148  -0.91435  -0.84008
 Alpha  occ. eigenvalues --   -0.76712  -0.67866  -0.66857  -0.64977  -0.62887
 Alpha  occ. eigenvalues --   -0.62841  -0.57038  -0.56290  -0.53368  -0.53354
 Alpha  occ. eigenvalues --   -0.52404  -0.51617  -0.48785  -0.47684  -0.46073
 Alpha  occ. eigenvalues --   -0.42610  -0.41559
 Alpha virt. eigenvalues --    0.13535   0.16146   0.16316   0.17928   0.19192
 Alpha virt. eigenvalues --    0.20703   0.20709   0.21666   0.22874   0.24490
 Alpha virt. eigenvalues --    0.25569   0.26415   0.26877   0.28648   0.30575

 Mulliken atomic charges:
              1
     1  C    0.317731
     2  O   -0.399676
     3  C    0.008356
     4  C   -0.094881
     5  C    0.008366
     6  O   -0.399697
     7  C   -0.300943
     8  C   -0.260859
     9  H    0.102479
    10  H    0.085324
    11  H    0.108661
    12  H    0.085310
    13  H    0.102475
    14  H    0.053043
    15  H    0.099566
    16  H    0.092744
    17  H    0.092740
    18  H    0.113594
    19  H    0.092834
    20  H    0.092834
 Sum of Mulliken atomic charges =   0.00000

 Dipole moment (field-independent basis, Debye):
    X=              1.1583    Y=             -0.0002    Z=             -1.6010  Tot=              1.9761
 Quadrupole moment (field-independent basis, Debye-Ang):
   XX=            -46.8305   YY=            -52.5873   ZZ=            -49.3545
   XY=              0.0002   XZ=             -0.1783   YZ=              0.0001

 Normal termination of Gaussian 09 at Sat Mar 12 22:02:38 2016.
