 Gaussian 09, Revision A.01,
 Gaussian 09:  EM64L-G09RevA.01  8-May-2009

 -------------
 # mp2/cc-pVTZ
 -------------

 -------------------------------------------
 2_5_dimethyl_1_3_dioxane_eq_eq_single_point
 -------------------------------------------
 Symbolic Z-matrix:
 Charge =  0 Multiplicity = 1

                         Standard orientation:
 ---------------------------------------------------------------------
 Center     Atomic      Atomic             Coordinates (Angstroms)
 Number     Number       Type             X           Y           Z
 ---------------------------------------------------------------------
      1          6           0       -0.640658   -1.239311    0.135629
      2          6           0       -1.389306   -0.000011   -0.370381
      3          6           0       -0.640652    1.239301    0.135631
      4          8           0        0.748586    1.171069   -0.188653
      5          6           0        1.358466   -0.000058    0.324821
      6          8           0        0.748598   -1.171029   -0.188661
      7          6           0       -2.857984    0.000003    0.062756
      8          6           0        2.815883    0.000011   -0.077560
      9          1           0       -0.760794    1.330404    1.229981
     10          1           0       -1.018280    2.156353   -0.325451
     11          1           0       -1.330646   -0.000021   -1.466531
     12          1           0        1.237855    0.000011    1.426089
     13          1           0       -0.760747   -1.330424    1.229976
     14          1           0       -1.018235   -2.156377   -0.325457
     15          1           0        2.894634    0.000048   -1.168022
     16          1           0        3.311029    0.891421    0.315987
     17          1           0        3.311119   -0.891374    0.315939
     18          1           0       -2.953539    0.000010    1.155536
     19          1           0       -3.382175    0.883834   -0.317452
     20          1           0       -3.382194   -0.883814   -0.317458
 ---------------------------------------------------------------------

 SCF Done:  E(RHF) =  -384.050794531     A.U. after   12 cycles
 E2 =    -0.1502917769D+01 EUMP2 =    -0.38555371229954D+03

 The electronic state is 1-A.
 Alpha  occ. eigenvalues --  -20.55527 -20.55524 -11.32876 -11.27782 -11.27781
 Alpha  occ. eigenvalues --  -11.23340 -11.22676 -11.21164  -1.41284  -1.33522
 Alpha  occ. eigenvalues --   -1.09212  -1.00607  -0.91859  -0.91541  -0.83461
 Alpha  occ. eigenvalues --   -0.78590  -0.67422  -0.67232  -0.66054  -0.62342
 Alpha  occ. eigenvalues --   -0.61122  -0.57291  -0.57232  -0.53872  -0.53037
 Alpha  occ. eigenvalues --   -0.52765  -0.52574  -0.48862  -0.47671  -0.46307
 Alpha  occ. eigenvalues --   -0.42650  -0.41573
 Alpha virt. eigenvalues --    0.13774   0.15555   0.16493   0.17545   0.18627
 Alpha virt. eigenvalues --    0.21119   0.21373   0.21401   0.22976   0.23962
 Alpha virt. eigenvalues --    0.24518   0.26279   0.27538   0.28383   0.31809

 Mulliken atomic charges:
              1
     1  C    0.018756
     2  C   -0.084436
     3  C    0.018773
     4  O   -0.390225
     5  C    0.318763
     6  O   -0.390172
     7  C   -0.316118
     8  C   -0.260400
     9  H    0.065452
    10  H    0.110355
    11  H    0.104082
    12  H    0.046550
    13  H    0.065470
    14  H    0.110366
    15  H    0.098949
    16  H    0.092496
    17  H    0.092490
    18  H    0.090451
    19  H    0.104200
    20  H    0.104198
 Sum of Mulliken atomic charges =   0.00000

 Dipole moment (field-independent basis, Debye):
    X=             -1.6654    Y=             -0.0005    Z=              1.1532  Tot=              2.0257
 Quadrupole moment (field-independent basis, Debye-Ang):
   XX=            -47.4908   YY=            -52.5820   ZZ=            -49.6791
   XY=             -0.0002   XZ=              1.7055   YZ=              0.0000

 Normal termination of Gaussian 09 at Sat Mar 12 22:19:42 2016.
