 Gaussian 09, Revision A.01,
 Gaussian 09:  EM64L-G09RevA.01  8-May-2009

 -------------
 # mp2/cc-pVTZ
 -------------

 ----------------------------
 2_butanone_skew_single_point
 ----------------------------
 Symbolic Z-matrix:
 Charge =  0 Multiplicity = 1

                         Standard orientation:
 ---------------------------------------------------------------------
 Center     Atomic      Atomic             Coordinates (Angstroms)
 Number     Number       Type             X           Y           Z
 ---------------------------------------------------------------------
      1          6           0       -1.031461    1.262645    0.071765
      2          6           0       -0.620149   -0.199878    0.054233
      3          8           0       -1.405764   -1.070471   -0.282537
      4          6           0        0.804814   -0.541745    0.472012
      5          6           0        1.891793    0.212894   -0.313453
      6          1           0       -2.118228    1.338460    0.008540
      7          1           0       -0.667582    1.771963    0.970909
      8          1           0       -0.592841    1.779189   -0.790755
      9          1           0        0.901816   -0.305588    1.541650
     10          1           0        0.923798   -1.623097    0.360944
     11          1           0        1.812212    0.015271   -1.387811
     12          1           0        1.831553    1.295216   -0.161476
     13          1           0        2.885400   -0.111141    0.010960
 ---------------------------------------------------------------------

 SCF Done:  E(RHF) =  -231.078357385     A.U. after   12 cycles
 E2 =    -0.9166822060D+00 EUMP2 =    -0.23199503959096D+03

 The electronic state is 1-A.
 Alpha  occ. eigenvalues --  -20.54042 -11.32913 -11.24030 -11.23527 -11.23518
 Alpha  occ. eigenvalues --   -1.37695  -1.06631  -0.99234  -0.88709  -0.73354
 Alpha  occ. eigenvalues --   -0.64834  -0.64508  -0.61107  -0.58802  -0.55930
 Alpha  occ. eigenvalues --   -0.54126  -0.52694  -0.50388  -0.47819  -0.40643
 Alpha virt. eigenvalues --    0.12334   0.14899   0.16785   0.17887   0.19475
 Alpha virt. eigenvalues --    0.21098   0.21903   0.23552   0.24413   0.28867
 Alpha virt. eigenvalues --    0.31410   0.35106   0.36280   0.37715   0.39119

 Mulliken atomic charges:
              1
     1  C   -0.310784
     2  C    0.291928
     3  O   -0.363185
     4  C   -0.186261
     5  C   -0.304685
     6  H    0.134602
     7  H    0.100338
     8  H    0.104151
     9  H    0.098901
    10  H    0.124417
    11  H    0.104791
    12  H    0.092513
    13  H    0.113274
 Sum of Mulliken atomic charges =   0.00000

 Dipole moment (field-independent basis, Debye):
    X=              2.2982    Y=              2.3627    Z=              0.8416  Tot=              3.4019
 Quadrupole moment (field-independent basis, Debye-Ang):
   XX=            -34.5130   YY=            -33.5777   ZZ=            -31.1463
   XY=             -4.3063   XZ=             -0.9226   YZ=             -0.8075

 Normal termination of Gaussian 09 at Sat Mar 12 22:30:02 2016.
