 Gaussian 09, Revision A.01,
 Gaussian 09:  EM64L-G09RevA.01  8-May-2009

 -------------
 # mp2/cc-pVTZ
 -------------

 ---------------------------
 2_butanone_ecl_single_point
 ---------------------------
 Symbolic Z-matrix:
 Charge =  0 Multiplicity = 1

                         Standard orientation:
 ---------------------------------------------------------------------
 Center     Atomic      Atomic             Coordinates (Angstroms)
 Number     Number       Type             X           Y           Z
 ---------------------------------------------------------------------
      1          6           0        1.891988   -0.505914    0.000177
      2          6           0        0.529953    0.166925   -0.000088
      3          8           0        0.420202    1.381140   -0.000115
      4          6           0       -0.685980   -0.752540   -0.000296
      5          6           0       -2.026606   -0.020145    0.000243
      6          1           0        2.679795    0.249008   -0.000426
      7          1           0        2.000090   -1.149321    0.881497
      8          1           0        1.999920   -1.150640   -0.880194
      9          1           0       -0.598419   -1.416493   -0.872712
     10          1           0       -0.598163   -1.417404    0.871391
     11          1           0       -2.854321   -0.736271   -0.000027
     12          1           0       -2.123218    0.620568    0.881173
     13          1           0       -2.123429    0.621475   -0.879998
 ---------------------------------------------------------------------

 SCF Done:  E(RHF) =  -231.081002850     A.U. after   12 cycles
 E2 =    -0.9163054390D+00 EUMP2 =    -0.23199730828944D+03

 The electronic state is 1-A.
 Alpha  occ. eigenvalues --  -20.54178 -11.32990 -11.24148 -11.23568 -11.21857
 Alpha  occ. eigenvalues --   -1.37895  -1.05976  -0.99827  -0.87631  -0.73066
 Alpha  occ. eigenvalues --   -0.65347  -0.63623  -0.61908  -0.57992  -0.56806
 Alpha  occ. eigenvalues --   -0.51939  -0.51251  -0.50491  -0.48153  -0.40924
 Alpha virt. eigenvalues --    0.12694   0.14486   0.15917   0.19537   0.19692
 Alpha virt. eigenvalues --    0.21381   0.22581   0.23584   0.24818   0.28639
 Alpha virt. eigenvalues --    0.32899   0.33783   0.36447   0.38531   0.38640

 Mulliken atomic charges:
              1
     1  C   -0.287159
     2  C    0.276849
     3  O   -0.360677
     4  C   -0.190423
     5  C   -0.273088
     6  H    0.128904
     7  H    0.097950
     8  H    0.097923
     9  H    0.103900
    10  H    0.103885
    11  H    0.095959
    12  H    0.102972
    13  H    0.103005
 Sum of Mulliken atomic charges =   0.00000

 Dipole moment (field-independent basis, Debye):
    X=              0.2255    Y=             -3.1873    Z=              0.0001  Tot=              3.1952
 Quadrupole moment (field-independent basis, Debye-Ang):
   XX=            -30.0381   YY=            -35.9344   ZZ=            -30.8099
   XY=             -1.3399   XZ=              0.0006   YZ=              0.0003

 Normal termination of Gaussian 09 at Sat Mar 12 22:25:14 2016.
