 Gaussian 09, Revision A.01,
 Gaussian 09:  EM64L-G09RevA.01  8-May-2009

 -------------
 # mp2/cc-pVTZ
 -------------

 ---------------------------------
 2_keto_cyclodecanone_single_point
 ---------------------------------
 Symbolic Z-matrix:
 Charge =  0 Multiplicity = 1

                         Standard orientation:
 ---------------------------------------------------------------------
 Center     Atomic      Atomic             Coordinates (Angstroms)
 Number     Number       Type             X           Y           Z
 ---------------------------------------------------------------------
      1          6           0        2.517713    0.769744    0.000422
      2          6           0        2.303803   -0.615285   -0.650194
      3          6           0        1.742379   -1.761792    0.218230
      4          6           0        0.290399   -1.639232    0.731105
      5          6           0       -0.781929   -1.457530   -0.367665
      6          6           0       -1.994557   -0.576023   -0.056234
      7          8           0       -3.094633   -0.896948   -0.481707
      8          6           0        1.273479    1.548141    0.481759
      9          6           0        0.190100    1.785519   -0.591984
     10          6           0       -1.247441    1.927331   -0.055446
     11          6           0       -1.839551    0.726177    0.731150
     12          1           0        3.201343    0.656158    0.853365
     13          1           0        3.054453    1.390698   -0.730769
     14          1           0        1.608775    2.518393    0.871301
     15          1           0        0.841826    1.031576    1.343540
     16          1           0        3.284842   -0.947531   -1.014601
     17          1           0        1.695660   -0.507141   -1.556683
     18          1           0        0.212860    0.983301   -1.335156
     19          1           0        0.433035    2.697551   -1.152536
     20          1           0        2.397407   -1.898594    1.089901
     21          1           0        1.827258   -2.687782   -0.367496
     22          1           0        0.239376   -0.823386    1.453543
     23          1           0        0.053245   -2.544989    1.302495
     24          1           0       -1.917082    2.149093   -0.895556
     25          1           0       -1.297960    2.797094    0.613025
     26          1           0       -1.179723   -2.422073   -0.697065
     27          1           0       -0.328683   -1.005133   -1.259180
     28          1           0       -2.848567    0.997833    1.054117
     29          1           0       -1.247364    0.548215    1.634564
 ---------------------------------------------------------------------

 SCF Done:  E(RHF) =  -464.170528725     A.U. after   13 cycles
 E2 =    -0.1950449634D+01 EUMP2 =    -0.46612097835901D+03

 The electronic state is 1-A.
 Alpha  occ. eigenvalues --  -20.53490 -11.32418 -11.23644 -11.23341 -11.23319
 Alpha  occ. eigenvalues --  -11.23245 -11.22975 -11.22768 -11.22743 -11.22673
 Alpha  occ. eigenvalues --  -11.22586  -1.37142  -1.10715  -1.07186  -1.05451
 Alpha  occ. eigenvalues --   -0.98445  -0.96015  -0.89692  -0.84715  -0.79804
 Alpha  occ. eigenvalues --   -0.76532  -0.71729  -0.66659  -0.66386  -0.62548
 Alpha  occ. eigenvalues --   -0.61544  -0.61283  -0.59768  -0.58333  -0.57130
 Alpha  occ. eigenvalues --   -0.54567  -0.54001  -0.53430  -0.51616  -0.50281
 Alpha  occ. eigenvalues --   -0.49781  -0.47356  -0.47268  -0.46153  -0.45301
 Alpha  occ. eigenvalues --   -0.44658  -0.44071  -0.39594
 Alpha virt. eigenvalues --    0.12946   0.13560   0.14376   0.15422   0.16193
 Alpha virt. eigenvalues --    0.17263   0.18621   0.18757   0.19507   0.20275
 Alpha virt. eigenvalues --    0.21379   0.22373   0.23533   0.24039   0.24693

 Mulliken atomic charges:
              1
     1  C   -0.186910
     2  C   -0.235306
     3  C   -0.189350
     4  C   -0.243207
     5  C   -0.210594
     6  C    0.294036
     7  O   -0.376278
     8  C   -0.220149
     9  C   -0.223093
    10  C   -0.201124
    11  C   -0.240554
    12  H    0.102868
    13  H    0.103257
    14  H    0.120750
    15  H    0.095053
    16  H    0.123930
    17  H    0.098595
    18  H    0.099049
    19  H    0.121458
    20  H    0.105000
    21  H    0.106986
    22  H    0.105005
    23  H    0.130275
    24  H    0.120356
    25  H    0.106148
    26  H    0.140127
    27  H    0.103571
    28  H    0.141910
    29  H    0.108192
 Sum of Mulliken atomic charges =   0.00000

 Dipole moment (field-independent basis, Debye):
    X=              3.3997    Y=              1.0864    Z=              1.0166  Tot=              3.7110
 Quadrupole moment (field-independent basis, Debye-Ang):
   XX=            -84.6253   YY=            -69.2218   ZZ=            -70.0469
   XY=             -5.0891   XZ=             -3.5819   YZ=             -0.8922

 Normal termination of Gaussian 09 at Sat Mar 12 23:35:12 2016.
