 Gaussian 09, Revision A.01,
 Gaussian 09:  EM64L-G09RevA.01  8-May-2009

 -------------
 # mp2/cc-pVTZ
 -------------

 ----------------------------------------
 2_methoxytetrahydropyran_ax_single_point
 ----------------------------------------
 Symbolic Z-matrix:
 Charge =  0 Multiplicity = 1

                         Standard orientation:
 ---------------------------------------------------------------------
 Center     Atomic      Atomic             Coordinates (Angstroms)
 Number     Number       Type             X           Y           Z
 ---------------------------------------------------------------------
      1          6           0        0.571065   -0.409748    0.650041
      2          8           0        0.123586    0.918676    0.882003
      3          6           0       -0.767527    1.427560   -0.124990
      4          6           0       -2.006772    0.547660   -0.280269
      5          6           0       -1.591653   -0.900678   -0.580019
      6          6           0       -0.592399   -1.387926    0.480058
      7          8           0        1.387422   -0.504333   -0.500897
      8          6           0        2.607503    0.223758   -0.410734
      9          1           0       -1.025325    2.436231    0.208719
     10          1           0       -0.233384    1.505538   -1.082632
     11          1           0       -2.640799    0.949466   -1.080637
     12          1           0       -2.591068    0.584787    0.648843
     13          1           0       -1.126188   -0.952748   -1.571800
     14          1           0       -2.467818   -1.559070   -0.601399
     15          1           0       -0.190179   -2.374210    0.226659
     16          1           0       -1.094187   -1.472896    1.451920
     17          1           0        1.166649   -0.645626    1.543683
     18          1           0        3.158750    0.025538   -1.332231
     19          1           0        2.429216    1.300707   -0.312539
     20          1           0        3.204973   -0.116216    0.448053
 ---------------------------------------------------------------------

 SCF Done:  E(RHF) =  -384.044953726     A.U. after   12 cycles
 E2 =    -0.1502568668D+01 EUMP2 =    -0.38554752239411D+03

 The electronic state is 1-A.
 Alpha  occ. eigenvalues --  -20.55465 -20.55037 -11.32548 -11.26953 -11.26770
 Alpha  occ. eigenvalues --  -11.22131 -11.22071 -11.22006  -1.40364  -1.33335
 Alpha  occ. eigenvalues --   -1.07320  -1.02266  -0.92806  -0.86738  -0.85037
 Alpha  occ. eigenvalues --   -0.75479  -0.69520  -0.66414  -0.65341  -0.62783
 Alpha  occ. eigenvalues --   -0.60267  -0.58372  -0.57096  -0.54383  -0.53673
 Alpha  occ. eigenvalues --   -0.52046  -0.50180  -0.47898  -0.45994  -0.44063
 Alpha  occ. eigenvalues --   -0.43318  -0.41206
 Alpha virt. eigenvalues --    0.14184   0.15712   0.16410   0.17733   0.19515
 Alpha virt. eigenvalues --    0.20245   0.21347   0.22021   0.22845   0.23445
 Alpha virt. eigenvalues --    0.25070   0.25566   0.27954   0.29515   0.32535

 Mulliken atomic charges:
              1
     1  C    0.326402
     2  O   -0.416978
     3  C    0.021819
     4  C   -0.194436
     5  C   -0.203145
     6  C   -0.183168
     7  O   -0.394560
     8  C   -0.082817
     9  H    0.108319
    10  H    0.075959
    11  H    0.102214
    12  H    0.088815
    13  H    0.102949
    14  H    0.109185
    15  H    0.105850
    16  H    0.092914
    17  H    0.086808
    18  H    0.103966
    19  H    0.084623
    20  H    0.065279
 Sum of Mulliken atomic charges =   0.00000

 Dipole moment (field-independent basis, Debye):
    X=             -0.2273    Y=             -0.0572    Z=             -0.2698  Tot=              0.3574
 Quadrupole moment (field-independent basis, Debye-Ang):
   XX=            -45.7455   YY=            -49.9243   ZZ=            -51.2469
   XY=              0.2357   XZ=              0.5061   YZ=             -3.1959

 Normal termination of Gaussian 09 at Sat Mar 12 23:53:13 2016.
