 Gaussian 09, Revision A.01,
 Gaussian 09:  EM64L-G09RevA.01  8-May-2009

 -------------
 # mp2/cc-pVTZ
 -------------

 -------------------------------------
 2_methylcyclohexanone_ax_single_point
 -------------------------------------
 Symbolic Z-matrix:
 Charge =  0 Multiplicity = 1

                         Standard orientation:
 ---------------------------------------------------------------------
 Center     Atomic      Atomic             Coordinates (Angstroms)
 Number     Number       Type             X           Y           Z
 ---------------------------------------------------------------------
      1          6           0        0.749699    0.786180   -0.379945
      2          6           0        0.867252   -0.721400   -0.146170
      3          6           0       -0.259127   -1.383197    0.636000
      4          6           0       -1.651249   -0.963736    0.119479
      5          6           0       -1.783728    0.563455    0.039619
      6          6           0       -0.678815    1.166471   -0.841634
      7          8           0        1.826025   -1.356897   -0.554839
      8          6           0        1.190516    1.551475    0.887932
      9          1           0       -0.112113   -2.466022    0.598240
     10          1           0       -0.159113   -1.073500    1.686995
     11          1           0       -2.426485   -1.387911    0.768010
     12          1           0       -1.808731   -1.394878   -0.878765
     13          1           0       -1.739514    0.990428    1.050655
     14          1           0       -2.765945    0.834338   -0.365658
     15          1           0       -0.765628    2.259873   -0.875382
     16          1           0       -0.820115    0.812274   -1.871987
     17          1           0        1.462982    1.022824   -1.177004
     18          1           0        2.209320    1.273394    1.175696
     19          1           0        1.176460    2.629628    0.694099
     20          1           0        0.533395    1.359235    1.742127
 ---------------------------------------------------------------------

 SCF Done:  E(RHF) =  -347.054791020     A.U. after   13 cycles
 E2 =    -0.1418439647D+01 EUMP2 =    -0.34847323066759D+03

 The electronic state is 1-A.
 Alpha  occ. eigenvalues --  -20.53738 -11.32135 -11.24072 -11.23678 -11.23496
 Alpha  occ. eigenvalues --  -11.23435 -11.23245 -11.22951  -1.37289  -1.12287
 Alpha  occ. eigenvalues --   -1.04506  -0.99663  -0.92047  -0.84263  -0.81184
 Alpha  occ. eigenvalues --   -0.71269  -0.66391  -0.63397  -0.63230  -0.59655
 Alpha  occ. eigenvalues --   -0.58762  -0.56821  -0.56111  -0.55111  -0.52008
 Alpha  occ. eigenvalues --   -0.49849  -0.48938  -0.47318  -0.45992  -0.45528
 Alpha  occ. eigenvalues --   -0.39116
 Alpha virt. eigenvalues --    0.12512   0.14168   0.15129   0.16653   0.17270
 Alpha virt. eigenvalues --    0.19115   0.20691   0.20879   0.21635   0.22618
 Alpha virt. eigenvalues --    0.23361   0.24938   0.25768   0.29548   0.30471

 Mulliken atomic charges:
              1
     1  C   -0.101878
     2  C    0.298255
     3  C   -0.214723
     4  C   -0.203360
     5  C   -0.209548
     6  C   -0.211958
     7  O   -0.381483
     8  C   -0.316799
     9  H    0.133327
    10  H    0.103971
    11  H    0.116550
    12  H    0.100871
    13  H    0.095836
    14  H    0.119111
    15  H    0.109857
    16  H    0.111857
    17  H    0.131079
    18  H    0.120387
    19  H    0.106099
    20  H    0.092550
 Sum of Mulliken atomic charges =   0.00000

 Dipole moment (field-independent basis, Debye):
    X=             -2.7959    Y=              1.9276    Z=              1.0929  Tot=              3.5676
 Quadrupole moment (field-independent basis, Debye-Ang):
   XX=            -55.7343   YY=            -52.1054   ZZ=            -49.8274
   XY=              5.6170   XZ=              2.2854   YZ=             -2.0494

 Normal termination of Gaussian 09 at Sun Mar 13 01:37:39 2016.
