 Gaussian 09, Revision A.01,
 Gaussian 09:  EM64L-G09RevA.01  8-May-2009

 -------------
 # mp2/cc-pVTZ
 -------------

 -------------------------------------
 2_methylcyclohexanone_eq_single_point
 -------------------------------------
 Symbolic Z-matrix:
 Charge =  0 Multiplicity = 1

                         Standard orientation:
 ---------------------------------------------------------------------
 Center     Atomic      Atomic             Coordinates (Angstroms)
 Number     Number       Type             X           Y           Z
 ---------------------------------------------------------------------
      1          6           0       -0.841340   -0.501767    0.388930
      2          6           0       -0.444003    0.943754    0.081146
      3          6           0        1.007135    1.301692    0.370584
      4          6           0        1.980568    0.299794   -0.286128
      5          6           0        1.625514   -1.147160    0.082055
      6          6           0        0.168672   -1.471555   -0.276833
      7          8           0       -1.230191    1.758465   -0.373647
      8          6           0       -2.292062   -0.807428    0.015068
      9          1           0        1.184321    2.326994    0.034832
     10          1           0        1.148060    1.274826    1.461404
     11          1           0        3.008566    0.535836    0.012253
     12          1           0        1.935674    0.419925   -1.377116
     13          1           0        1.779373   -1.299009    1.160235
     14          1           0        2.300512   -1.842869   -0.430714
     15          1           0       -0.080081   -2.498594    0.016828
     16          1           0        0.039408   -1.420085   -1.367546
     17          1           0       -0.719266   -0.613615    1.479498
     18          1           0       -2.550403   -1.833002    0.299993
     19          1           0       -2.983009   -0.122699    0.513608
     20          1           0       -2.448537   -0.699393   -1.063027
 ---------------------------------------------------------------------

 SCF Done:  E(RHF) =  -347.058420089     A.U. after   13 cycles
 E2 =    -0.1417746738D+01 EUMP2 =    -0.34847616682705D+03

 The electronic state is 1-A.
 Alpha  occ. eigenvalues --  -20.53876 -11.32198 -11.24206 -11.23725 -11.23546
 Alpha  occ. eigenvalues --  -11.23511 -11.23314 -11.21419  -1.37466  -1.12246
 Alpha  occ. eigenvalues --   -1.04621  -0.99437  -0.91940  -0.83524  -0.80832
 Alpha  occ. eigenvalues --   -0.72405  -0.65447  -0.64540  -0.62150  -0.60336
 Alpha  occ. eigenvalues --   -0.59170  -0.57089  -0.53790  -0.53454  -0.52359
 Alpha  occ. eigenvalues --   -0.49757  -0.48708  -0.47323  -0.46940  -0.45184
 Alpha  occ. eigenvalues --   -0.39337
 Alpha virt. eigenvalues --    0.11872   0.14927   0.15471   0.16739   0.17201
 Alpha virt. eigenvalues --    0.19486   0.20291   0.20879   0.21965   0.22913
 Alpha virt. eigenvalues --    0.23495   0.24149   0.25925   0.28304   0.30756

 Mulliken atomic charges:
              1
     1  C   -0.105009
     2  C    0.276746
     3  C   -0.199738
     4  C   -0.202237
     5  C   -0.201812
     6  C   -0.195488
     7  O   -0.374750
     8  C   -0.288983
     9  H    0.129335
    10  H    0.101267
    11  H    0.115653
    12  H    0.102549
    13  H    0.090998
    14  H    0.115083
    15  H    0.114383
    16  H    0.101099
    17  H    0.113506
    18  H    0.093514
    19  H    0.114800
    20  H    0.099083
 Sum of Mulliken atomic charges =   0.00000

 Dipole moment (field-independent basis, Debye):
    X=              2.2915    Y=             -2.3713    Z=              1.1047  Tot=              3.4777
 Quadrupole moment (field-independent basis, Debye-Ang):
   XX=            -52.0556   YY=            -55.0269   ZZ=            -49.3309
   XY=              4.8057   XZ=             -1.3536   YZ=              1.7999

 Normal termination of Gaussian 09 at Sun Mar 13 01:56:13 2016.
