 Gaussian 09, Revision A.01,
 Gaussian 09:  EM64L-G09RevA.01  8-May-2009

 -------------
 # mp2/cc-pVTZ
 -------------

 --------------------------------------------
 2_methylaminotetrahydropyran_eq_single_point
 --------------------------------------------
 Symbolic Z-matrix:
 Charge =  0 Multiplicity = 1

                         Standard orientation:
 ---------------------------------------------------------------------
 Center     Atomic      Atomic             Coordinates (Angstroms)
 Number     Number       Type             X           Y           Z
 ---------------------------------------------------------------------
      1          6           0        0.550346    0.254254    0.196475
      2          8           0        0.118752   -0.995691   -0.351427
      3          6           0       -1.149392   -1.406168    0.155489
      4          6           0       -2.243462   -0.397228   -0.199981
      5          6           0       -1.857057    1.003187    0.300969
      6          6           0       -0.436738    1.369595   -0.160668
      7          7           0        1.862043    0.514079   -0.339389
      8          6           0        2.924392   -0.341370    0.186110
      9          1           0       -1.343878   -2.386362   -0.288669
     10          1           0       -1.090841   -1.533316    1.250921
     11          1           0       -3.198609   -0.717237    0.235456
     12          1           0       -2.368536   -0.382375   -1.290174
     13          1           0       -1.898484    1.019341    1.399517
     14          1           0       -2.575342    1.752968   -0.049960
     15          1           0       -0.115558    2.311676    0.303322
     16          1           0       -0.409602    1.504705   -1.248780
     17          1           0        0.570914    0.128909    1.303967
     18          1           0        2.091188    1.496111   -0.226442
     19          1           0        3.880143   -0.036120   -0.249191
     20          1           0        3.013873   -0.310008    1.287187
     21          1           0        2.731887   -1.374939   -0.110375
 ---------------------------------------------------------------------

 SCF Done:  E(RHF) =  -364.202680962     A.U. after   12 cycles
 E2 =    -0.1481275151D+01 EUMP2 =    -0.36568395611357D+03

 The electronic state is 1-A.
 Alpha  occ. eigenvalues --  -20.54304 -15.53718 -11.30065 -11.26943 -11.23650
 Alpha  occ. eigenvalues --  -11.22566 -11.22090 -11.22080  -1.36773  -1.19346
 Alpha  occ. eigenvalues --   -1.07284  -1.00858  -0.90819  -0.86507  -0.82977
 Alpha  occ. eigenvalues --   -0.77127  -0.68062  -0.65370  -0.62869  -0.61944
 Alpha  occ. eigenvalues --   -0.60090  -0.58060  -0.56708  -0.53831  -0.53208
 Alpha  occ. eigenvalues --   -0.51056  -0.49308  -0.48110  -0.46636  -0.44876
 Alpha  occ. eigenvalues --   -0.40140  -0.36955
 Alpha virt. eigenvalues --    0.14059   0.15174   0.15978   0.16889   0.18828
 Alpha virt. eigenvalues --    0.19704   0.21077   0.21746   0.22836   0.23180
 Alpha virt. eigenvalues --    0.24789   0.25058   0.25921   0.29117   0.30415

 Mulliken atomic charges:
              1
     1  C    0.239266
     2  O   -0.392164
     3  C    0.016146
     4  C   -0.182311
     5  C   -0.216196
     6  C   -0.190605
     7  N   -0.252671
     8  C   -0.178338
     9  H    0.106487
    10  H    0.062857
    11  H    0.100451
    12  H    0.092446
    13  H    0.091226
    14  H    0.111036
    15  H    0.098271
    16  H    0.101442
    17  H    0.028169
    18  H    0.112706
    19  H    0.093922
    20  H    0.047546
    21  H    0.110314
 Sum of Mulliken atomic charges =   0.00000

 Dipole moment (field-independent basis, Debye):
    X=             -0.7963    Y=              1.1643    Z=              1.5949  Tot=              2.1291
 Quadrupole moment (field-independent basis, Debye-Ang):
   XX=            -47.6539   YY=            -49.1801   ZZ=            -52.9245
   XY=              2.5706   XZ=              1.7976   YZ=             -0.5566

 1\1\GINC-ROCK\SP\RMP2-FC\CC-pVTZ\C6H13N1O1\STYLIANAKIS\13-Mar-2016\0\\
 # mp2/cc-pVTZ\\2_methylaminotetrahydropyran_eq_single_point\\0,1\C\O,1
 ,1.431374\C,2,1.426059,1,112.546\C,3,1.530134,2,111.313,1,61.493,0\C,4
 ,1.536692,3,110.205,2,-55.47,0\C,5,1.537749,4,110.581,3,50.826,0\N,1,1
 .440558,2,106.838,3,177.039,0\C,7,1.461686,1,114.992,2,-71.401,0\H,3,1
 .093564,4,111.685,5,-173.445,0\H,3,1.104339,4,110.137,5,66.547,0\H,4,1
 .097414,3,109.747,2,-177.767,0\H,4,1.097445,3,108.735,2,65.032,0\H,5,1
 .099447,4,109.247,3,-69.565,0\H,5,1.096018,4,110.748,3,173.352,0\H,6,1

 Normal termination of Gaussian 09 at Sun Mar 13 01:17:30 2016.
