 Gaussian 09, Revision A.01,
 Gaussian 09:  EM64L-G09RevA.01  8-May-2009

 -------------
 # mp2/cc-pVTZ
 -------------

 ----------------------------------------
 2_methoxytetrahydropyran_eq_single_point
 ----------------------------------------
 Symbolic Z-matrix:
 Charge =  0 Multiplicity = 1

                         Standard orientation:
 ---------------------------------------------------------------------
 Center     Atomic      Atomic             Coordinates (Angstroms)
 Number     Number       Type             X           Y           Z
 ---------------------------------------------------------------------
      1          6           0        0.562702    0.268101    0.227520
      2          8           0        0.155304   -0.992476   -0.309853
      3          6           0       -1.126556   -1.405589    0.167142
      4          6           0       -2.214292   -0.403561   -0.223929
      5          6           0       -1.842921    1.002117    0.273515
      6          6           0       -0.414917    1.370695   -0.162692
      7          8           0        1.821819    0.580200   -0.276856
      8          6           0        2.861853   -0.305659    0.132004
      9          1           0       -1.303802   -2.390989   -0.272183
     10          1           0       -1.093555   -1.522632    1.264557
     11          1           0       -3.177558   -0.724521    0.192221
     12          1           0       -2.314136   -0.399101   -1.316756
     13          1           0       -1.908663    1.027543    1.370905
     14          1           0       -2.555735    1.746802   -0.097910
     15          1           0       -0.092082    2.314067    0.291042
     16          1           0       -0.360942    1.488064   -1.251427
     17          1           0        0.612018    0.161821    1.331797
     18          1           0        3.792843    0.113500   -0.254298
     19          1           0        2.918114   -0.362451    1.229224
     20          1           0        2.711300   -1.310521   -0.274844
 ---------------------------------------------------------------------

 SCF Done:  E(RHF) =  -384.043915145     A.U. after   12 cycles
 E2 =    -0.1501377851D+01 EUMP2 =    -0.38554529299654D+03

 The electronic state is 1-A.
 Alpha  occ. eigenvalues --  -20.55459 -20.54971 -11.32653 -11.27563 -11.26528
 Alpha  occ. eigenvalues --  -11.22731 -11.22424 -11.21904  -1.40643  -1.33700
 Alpha  occ. eigenvalues --   -1.07654  -1.02159  -0.92929  -0.87113  -0.83956
 Alpha  occ. eigenvalues --   -0.77823  -0.68487  -0.67317  -0.64842  -0.62442
 Alpha  occ. eigenvalues --   -0.60429  -0.59518  -0.58541  -0.54382  -0.53266
 Alpha  occ. eigenvalues --   -0.51038  -0.48541  -0.48160  -0.47320  -0.45684
 Alpha  occ. eigenvalues --   -0.43152  -0.40559
 Alpha virt. eigenvalues --    0.14096   0.15359   0.16755   0.16793   0.19436
 Alpha virt. eigenvalues --    0.20886   0.21307   0.21852   0.22742   0.23254
 Alpha virt. eigenvalues --    0.24827   0.25211   0.28064   0.29303   0.31805

 Mulliken atomic charges:
              1
     1  C    0.323645
     2  O   -0.401272
     3  C    0.017471
     4  C   -0.183071
     5  C   -0.220207
     6  C   -0.177102
     7  O   -0.351285
     8  C   -0.075015
     9  H    0.109011
    10  H    0.064626
    11  H    0.101772
    12  H    0.093651
    13  H    0.091974
    14  H    0.112387
    15  H    0.110931
    16  H    0.097693
    17  H    0.032617
    18  H    0.106421
    19  H    0.053389
    20  H    0.092364
 Sum of Mulliken atomic charges =   0.00000

 Dipole moment (field-independent basis, Debye):
    X=             -1.1538    Y=             -0.2688    Z=              1.4953  Tot=              1.9077
 Quadrupole moment (field-independent basis, Debye-Ang):
   XX=            -46.2108   YY=            -50.4801   ZZ=            -50.2551
   XY=             -0.9474   XZ=              1.7236   YZ=             -0.3288

 Normal termination of Gaussian 09 at Sun Mar 13 00:10:23 2016.
