 Gaussian 09, Revision A.01,
 Gaussian 09:  EM64L-G09RevA.01  8-May-2009

 -------------
 # mp2/cc-pVTZ
 -------------

 ------------------------
 2_Me_THP_ax_single_point
 ------------------------
 Symbolic Z-matrix:
 Charge =  0 Multiplicity = 1

                         Standard orientation:
 ---------------------------------------------------------------------
 Center     Atomic      Atomic             Coordinates (Angstroms)
 Number     Number       Type             X           Y           Z
 ---------------------------------------------------------------------
      1          6           0        1.075686    0.040093   -0.502031
      2          8           0        0.288669   -1.150990   -0.686821
      3          6           0       -0.804708   -1.299216    0.220097
      4          6           0       -1.772207   -0.116597    0.149809
      5          6           0       -1.018357    1.199844    0.390471
      6          6           0        0.184237    1.294568   -0.563354
      7          6           0        1.951921   -0.040706    0.754747
      8          1           0       -1.294168   -2.233360   -0.070621
      9          1           0       -0.434774   -1.424976    1.250544
     10          1           0       -2.573841   -0.253631    0.886785
     11          1           0       -2.240529   -0.098795   -0.843203
     12          1           0       -0.679927    1.242890    1.434786
     13          1           0       -1.682880    2.059626    0.245197
     14          1           0        0.787417    2.184834   -0.345962
     15          1           0       -0.185766    1.400204   -1.591199
     16          1           0        1.740142    0.040250   -1.373207
     17          1           0        2.522629   -0.974427    0.751944
     18          1           0        2.660702    0.794885    0.769210
     19          1           0        1.372214    0.002513    1.681857
 ---------------------------------------------------------------------

 SCF Done:  E(RHF) =  -309.159198078     A.U. after   11 cycles
 E2 =    -0.1273926307D+01 EUMP2 =    -0.31043312438443D+03

 The electronic state is 1-A.
 Alpha  occ. eigenvalues --  -20.54096 -11.27486 -11.26696 -11.22307 -11.21979
 Alpha  occ. eigenvalues --  -11.21969 -11.21320  -1.35593  -1.07324  -1.04082
 Alpha  occ. eigenvalues --   -0.94931  -0.86396  -0.83765  -0.73860  -0.67471
 Alpha  occ. eigenvalues --   -0.63470  -0.61992  -0.59960  -0.57702  -0.56093
 Alpha  occ. eigenvalues --   -0.53617  -0.53213  -0.51083  -0.48682  -0.47363
 Alpha  occ. eigenvalues --   -0.45431  -0.42852  -0.39915
 Alpha virt. eigenvalues --    0.13615   0.15882   0.16147   0.17552   0.19911
 Alpha virt. eigenvalues --    0.20599   0.21511   0.21651   0.22832   0.23648
 Alpha virt. eigenvalues --    0.25616   0.26611   0.29130   0.30941   0.33489

 Mulliken atomic charges:
              1
     1  C    0.119784
     2  O   -0.409469
     3  C    0.021304
     4  C   -0.186310
     5  C   -0.218435
     6  C   -0.199806
     7  C   -0.307110
     8  H    0.111956
     9  H    0.061860
    10  H    0.101648
    11  H    0.089559
    12  H    0.095262
    13  H    0.114576
    14  H    0.101884
    15  H    0.100876
    16  H    0.108626
    17  H    0.112128
    18  H    0.095645
    19  H    0.086023
 Sum of Mulliken atomic charges =   0.00000

 Dipole moment (field-independent basis, Debye):
    X=             -0.3575    Y=              1.1611    Z=              0.9669  Tot=              1.5527
 Quadrupole moment (field-independent basis, Debye-Ang):
   XX=            -43.4764   YY=            -46.4664   ZZ=            -45.8217
   XY=              1.7031   XZ=             -0.2087   YZ=             -2.0940

 Normal termination of Gaussian 09 at Sun Mar 13 00:24:08 2016.
