 Gaussian 09, Revision A.01,
 Gaussian 09:  EM64L-G09RevA.01  8-May-2009

 -------------
 # mp2/cc-pVTZ
 -------------

 ------------------------
 2_Me_THP_eq_single_point
 ------------------------
 Symbolic Z-matrix:
 Charge =  0 Multiplicity = 1

                         Standard orientation:
 ---------------------------------------------------------------------
 Center     Atomic      Atomic             Coordinates (Angstroms)
 Number     Number       Type             X           Y           Z
 ---------------------------------------------------------------------
      1          6           0        0.977585    0.018367    0.324222
      2          8           0        0.351876   -1.159902   -0.200592
      3          6           0       -1.013889   -1.290955    0.188516
      4          6           0       -1.858869   -0.111254   -0.296114
      5          6           0       -1.255328    1.211176    0.200157
      6          6           0        0.239838    1.278810   -0.149966
      7          6           0        2.437364   -0.023631   -0.103730
      8          1           0       -1.357073   -2.236292   -0.241635
      9          1           0       -1.076564   -1.373831    1.288123
     10          1           0       -2.891646   -0.228897    0.055816
     11          1           0       -1.883978   -0.120886   -1.393532
     12          1           0       -1.376117    1.278280    1.291174
     13          1           0       -1.789997    2.067315   -0.227533
     14          1           0        0.703533    2.164575    0.302300
     15          1           0        0.365018    1.364965   -1.238085
     16          1           0        0.920114   -0.026659    1.428002
     17          1           0        2.982227    0.833064    0.307204
     18          1           0        2.913808   -0.942590    0.250143
     19          1           0        2.515461    0.005092   -1.195748
 ---------------------------------------------------------------------

 SCF Done:  E(RHF) =  -309.164861235     A.U. after   12 cycles
 E2 =    -0.1272957225D+01 EUMP2 =    -0.31043781846021D+03

 The electronic state is 1-A.
 Alpha  occ. eigenvalues --  -20.54300 -11.27456 -11.26845 -11.22331 -11.22015
 Alpha  occ. eigenvalues --  -11.21900 -11.21007  -1.36095  -1.07288  -1.04590
 Alpha  occ. eigenvalues --   -0.94291  -0.86678  -0.82190  -0.76562  -0.65535
 Alpha  occ. eigenvalues --   -0.64499  -0.61691  -0.60999  -0.58341  -0.54107
 Alpha  occ. eigenvalues --   -0.53538  -0.52111  -0.51726  -0.48154  -0.47721
 Alpha  occ. eigenvalues --   -0.45320  -0.44135  -0.39892
 Alpha virt. eigenvalues --    0.14259   0.15748   0.15996   0.17270   0.20086
 Alpha virt. eigenvalues --    0.20667   0.21377   0.21778   0.23361   0.24038
 Alpha virt. eigenvalues --    0.24441   0.26515   0.28312   0.30527   0.32247

 Mulliken atomic charges:
              1
     1  C    0.150285
     2  O   -0.406277
     3  C    0.021272
     4  C   -0.184771
     5  C   -0.207594
     6  C   -0.192567
     7  C   -0.284305
     8  H    0.105802
     9  H    0.059676
    10  H    0.101074
    11  H    0.089794
    12  H    0.090984
    13  H    0.109675
    14  H    0.105016
    15  H    0.090132
    16  H    0.070716
    17  H    0.082384
    18  H    0.106666
    19  H    0.092040
 Sum of Mulliken atomic charges =   0.00000

 Dipole moment (field-independent basis, Debye):
    X=             -0.7666    Y=              1.0994    Z=              0.6882  Tot=              1.5067
 Quadrupole moment (field-independent basis, Debye-Ang):
   XX=            -43.8502   YY=            -46.4903   ZZ=            -44.8889
   XY=              2.0594   XZ=              0.5329   YZ=             -0.7418

 Normal termination of Gaussian 09 at Sun Mar 13 00:37:58 2016.
