 Gaussian 09, Revision A.01,
 Gaussian 09:  EM64L-G09RevA.01  8-May-2009

 -------------
 # mp2/cc-pVTZ
 -------------

 --------------------------------------------
 2_methylaminotetrahydropyran_ax_single_point
 --------------------------------------------
 Symbolic Z-matrix:
 Charge =  0 Multiplicity = 1

                         Standard orientation:
 ---------------------------------------------------------------------
 Center     Atomic      Atomic             Coordinates (Angstroms)
 Number     Number       Type             X           Y           Z
 ---------------------------------------------------------------------
      1          6           0       -0.561871   -0.296337    0.693120
      2          8           0        0.474737   -1.270860    0.650444
      3          6           0        1.429750   -1.092467   -0.409874
      4          6           0        2.096251    0.281130   -0.349284
      5          6           0        1.029967    1.387050   -0.354323
      6          6           0        0.012146    1.127254    0.765288
      7          7           0       -1.434310   -0.488982   -0.468254
      8          6           0       -2.704491    0.233098   -0.415295
      9          1           0        2.155255   -1.898741   -0.270359
     10          1           0        0.935347   -1.230712   -1.380640
     11          1           0        2.781751    0.389291   -1.199381
     12          1           0        2.698723    0.349439    0.566551
     13          1           0        0.516752    1.396670   -1.323535
     14          1           0        1.492949    2.372027   -0.222076
     15          1           0       -0.799259    1.863087    0.743377
     16          1           0        0.502643    1.228319    1.741539
     17          1           0       -1.093862   -0.519706    1.634646
     18          1           0       -1.614350   -1.488346   -0.534326
     19          1           0       -3.353090   -0.130052   -1.217451
     20          1           0       -3.244354    0.117507    0.542724
     21          1           0       -2.546734    1.302607   -0.584641
 ---------------------------------------------------------------------

 SCF Done:  E(RHF) =  -364.201134193     A.U. after   12 cycles
 E2 =    -0.1482429457D+01 EUMP2 =    -0.36568356364958D+03

 The electronic state is 1-A.
 Alpha  occ. eigenvalues --  -20.54508 -15.53953 -11.30025 -11.26409 -11.24650
 Alpha  occ. eigenvalues --  -11.21808 -11.21743 -11.21698  -1.36670  -1.19037
 Alpha  occ. eigenvalues --   -1.06762  -1.00896  -0.91140  -0.86723  -0.83777
 Alpha  occ. eigenvalues --   -0.74280  -0.67955  -0.66746  -0.63347  -0.61418
 Alpha  occ. eigenvalues --   -0.58889  -0.58020  -0.56115  -0.53781  -0.53405
 Alpha  occ. eigenvalues --   -0.52633  -0.49585  -0.47363  -0.45805  -0.44771
 Alpha  occ. eigenvalues --   -0.40542  -0.36993
 Alpha virt. eigenvalues --    0.13809   0.15587   0.16619   0.17184   0.19129
 Alpha virt. eigenvalues --    0.19724   0.20328   0.22008   0.22603   0.23805
 Alpha virt. eigenvalues --    0.24206   0.25847   0.26945   0.28578   0.31492

 Mulliken atomic charges:
              1
     1  C    0.198726
     2  O   -0.414975
     3  C    0.029797
     4  C   -0.197439
     5  C   -0.188732
     6  C   -0.214503
     7  N   -0.303559
     8  C   -0.177820
     9  H    0.108637
    10  H    0.071183
    11  H    0.100606
    12  H    0.087490
    13  H    0.097999
    14  H    0.108611
    15  H    0.106389
    16  H    0.104317
    17  H    0.105166
    18  H    0.129541
    19  H    0.102757
    20  H    0.058507
    21  H    0.087303
 Sum of Mulliken atomic charges =   0.00000

 Dipole moment (field-independent basis, Debye):
    X=             -0.6053    Y=              0.8109    Z=             -0.3830  Tot=              1.0820
 Quadrupole moment (field-independent basis, Debye-Ang):
   XX=            -46.7638   YY=            -51.4554   ZZ=            -52.2990
   XY=              0.9327   XZ=             -1.1398   YZ=              2.2907

 1\1\GINC-ROCK\SP\RMP2-FC\CC-pVTZ\C6H13N1O1\STYLIANAKIS\13-Mar-2016\0\\
 # mp2/cc-pVTZ\\2_methylaminotetrahydropyran_ax_single_point\\0,1\C\O,1
 ,1.423402\C,2,1.438106,1,114.885\C,3,1.52796,2,111.836,1,57.252,0\C,4,
 1.536245,3,110.137,2,-55.21,0\C,5,1.535246,4,109.63,3,53.335,0\N,1,1.4
 65282,2,108.653,3,69.054,0\C,7,1.462041,1,115.064,2,167.049,0\H,3,1.09
 3572,4,111.614,5,-172.23,0\H,3,1.09815,4,110.158,5,67.069,0\H,4,1.0973
 94,3,109.291,2,-177.532,0\H,4,1.098359,3,109.162,2,65.408,0\H,5,1.0967
 47,4,109.512,3,-66.966,0\H,5,1.096367,4,110.686,3,175.01,0\H,6,1.09558

 Normal termination of Gaussian 09 at Sun Mar 13 00:58:13 2016.
