 Gaussian 09, Revision A.01,
 Gaussian 09:  EM64L-G09RevA.01  8-May-2009

 -------------
 # mp2/cc-pVTZ
 -------------

 -------------------------
 2_propanol_a_single_point
 -------------------------
 Symbolic Z-matrix:
 Charge =  0 Multiplicity = 1

                         Standard orientation:
 ---------------------------------------------------------------------
 Center     Atomic      Atomic             Coordinates (Angstroms)
 Number     Number       Type             X           Y           Z
 ---------------------------------------------------------------------
      1          6           0        1.272966   -0.669462    0.099245
      2          6           0       -0.000076    0.036913   -0.370449
      3          8           0        0.000798    1.418209    0.022058
      4          6           0       -1.273982   -0.667782    0.099514
      5          1           0        2.159480   -0.129791   -0.246622
      6          1           0        1.307955   -0.721850    1.195524
      7          1           0        1.318513   -1.695176   -0.283894
      8          1           0       -0.000153    0.080362   -1.465656
      9          1           0       -2.159739   -0.126586   -0.245888
     10          1           0       -1.321227   -1.693298   -0.283980
     11          1           0       -1.308704   -0.720369    1.195776
     12          1           0        0.004037    1.463021    0.988420
 ---------------------------------------------------------------------

 SCF Done:  E(RHF) =  -193.193589326     A.U. after   11 cycles
 E2 =    -0.7779763166D+00 EUMP2 =    -0.19397156564228D+03

 The electronic state is 1-A.
 Alpha  occ. eigenvalues --  -20.54711 -11.28045 -11.21764 -11.21758  -1.34889
 Alpha  occ. eigenvalues --   -1.03888  -0.93797  -0.81162  -0.65743  -0.63527
 Alpha  occ. eigenvalues --   -0.59723  -0.57452  -0.54238  -0.51265  -0.50878
 Alpha  occ. eigenvalues --   -0.46781  -0.43619
 Alpha virt. eigenvalues --    0.13458   0.16724   0.18159   0.19588   0.20596
 Alpha virt. eigenvalues --    0.22119   0.23804   0.25633   0.29355   0.32802
 Alpha virt. eigenvalues --    0.34951   0.37777   0.40948   0.44644   0.47046

 Mulliken atomic charges:
              1
     1  C   -0.282989
     2  C    0.145508
     3  O   -0.435242
     4  C   -0.282820
     5  H    0.109290
     6  H    0.074967
     7  H    0.086499
     8  H    0.095718
     9  H    0.109257
    10  H    0.086429
    11  H    0.074982
    12  H    0.218401
 Sum of Mulliken atomic charges =   0.00000

 Dipole moment (field-independent basis, Debye):
    X=              0.0043    Y=             -1.4490    Z=              0.9300  Tot=              1.7218
 Quadrupole moment (field-independent basis, Debye-Ang):
   XX=            -27.1048   YY=            -29.5668   ZZ=            -24.3474
   XY=              0.0057   XZ=              0.0085   YZ=              2.4524

 Normal termination of Gaussian 09 at Sun Mar 13 01:58:55 2016.
