 Gaussian 09, Revision A.01,
 Gaussian 09:  EM64L-G09RevA.01  8-May-2009

 -------------
 # mp2/cc-pVTZ
 -------------

 -------------------------
 2_propanol_g_single_point
 -------------------------
 Symbolic Z-matrix:
 Charge =  0 Multiplicity = 1

                         Standard orientation:
 ---------------------------------------------------------------------
 Center     Atomic      Atomic             Coordinates (Angstroms)
 Number     Number       Type             X           Y           Z
 ---------------------------------------------------------------------
      1          6           0       -1.328796   -0.557244   -0.089738
      2          6           0       -0.001898    0.037970    0.364300
      3          8           0        0.041586    1.374417   -0.163150
      4          6           0        1.203483   -0.779459   -0.103251
      5          1           0       -2.161649    0.066136    0.248371
      6          1           0       -1.364875   -0.614787   -1.183027
      7          1           0       -1.459399   -1.565070    0.317990
      8          1           0        0.005926    0.088332    1.465279
      9          1           0        2.144615   -0.322392    0.226623
     10          1           0        1.168589   -1.795383    0.306305
     11          1           0        1.219257   -0.844483   -1.196632
     12          1           0        0.878114    1.784714    0.092424
 ---------------------------------------------------------------------

 SCF Done:  E(RHF) =  -193.194056068     A.U. after   11 cycles
 E2 =    -0.7778785411D+00 EUMP2 =    -0.19397193460895D+03

 The electronic state is 1-A.
 Alpha  occ. eigenvalues --  -20.54705 -11.28057 -11.21852 -11.21146  -1.34858
 Alpha  occ. eigenvalues --   -1.03921  -0.93698  -0.79668  -0.68933  -0.62391
 Alpha  occ. eigenvalues --   -0.60110  -0.54458  -0.53218  -0.52487  -0.50864
 Alpha  occ. eigenvalues --   -0.47071  -0.43470
 Alpha virt. eigenvalues --    0.13368   0.17252   0.18195   0.19242   0.20831
 Alpha virt. eigenvalues --    0.22207   0.24273   0.26185   0.29607   0.33437
 Alpha virt. eigenvalues --    0.36068   0.37587   0.39322   0.44718   0.46094

 Mulliken atomic charges:
              1
     1  C   -0.275297
     2  C    0.156851
     3  O   -0.428616
     4  C   -0.282871
     5  H    0.106037
     6  H    0.092233
     7  H    0.080360
     8  H    0.068005
     9  H    0.082573
    10  H    0.086845
    11  H    0.096972
    12  H    0.216909
 Sum of Mulliken atomic charges =   0.00000

 Dipole moment (field-independent basis, Debye):
    X=              1.1903    Y=             -0.8234    Z=              0.9008  Tot=              1.7047
 Quadrupole moment (field-independent basis, Debye-Ang):
   XX=            -25.4504   YY=            -27.2368   ZZ=            -26.7809
   XY=              2.7187   XZ=              0.2634   YZ=              1.1104

 Normal termination of Gaussian 09 at Sun Mar 13 02:01:36 2016.
