 Gaussian 09, Revision A.01,
 Gaussian 09:  EM64L-G09RevA.01  8-May-2009

 -------------
 # mp2/cc-pVTZ
 -------------

 ---------------------------------
 3_keto_cyclodecanone_single_point
 ---------------------------------
 Symbolic Z-matrix:
 Charge =  0 Multiplicity = 1

                         Standard orientation:
 ---------------------------------------------------------------------
 Center     Atomic      Atomic             Coordinates (Angstroms)
 Number     Number       Type             X           Y           Z
 ---------------------------------------------------------------------
      1          6           0        1.989029   -1.099839   -0.495773
      2          6           0        2.226609    0.081268    0.467857
      3          6           0        1.959765    1.513908   -0.039915
      4          6           0        0.505591    1.878561   -0.404753
      5          6           0       -0.526905    1.631732    0.713448
      6          6           0       -1.976324    1.449724    0.227137
      7          6           0       -2.236879    0.236883   -0.688881
      8          6           0       -1.932645   -1.152641   -0.084156
      9          6           0       -0.476274   -1.534780    0.181260
     10          8           0       -0.151390   -2.027767    1.251041
     11          6           0        0.540379   -1.385185   -0.947717
     12          1           0        2.596330   -0.961372   -1.400676
     13          1           0        2.369708   -2.000246   -0.001679
     14          1           0        0.526471   -2.349279   -1.479494
     15          1           0        0.193696   -0.649711   -1.676102
     16          1           0        3.284817    0.038483    0.757931
     17          1           0        1.669961   -0.101657    1.392886
     18          1           0        2.594235    1.708232   -0.916408
     19          1           0        2.308217    2.205547    0.740223
     20          1           0        0.218387    1.332143   -1.308004
     21          1           0        0.475166    2.938405   -0.691619
     22          1           0       -2.470191   -1.291019    0.860005
     23          1           0       -2.315442   -1.912458   -0.783285
     24          1           0       -0.497516    2.472063    1.419605
     25          1           0       -0.246550    0.754677    1.305146
     26          1           0       -2.299129    2.353157   -0.309154
     27          1           0       -2.629723    1.368653    1.106484
     28          1           0       -3.300590    0.243220   -0.957608
     29          1           0       -1.700803    0.355511   -1.637624
 ---------------------------------------------------------------------

 SCF Done:  E(RHF) =  -464.178589922     A.U. after   15 cycles
 E2 =    -0.1950420903D+01 EUMP2 =    -0.46612901082443D+03

 The electronic state is 1-A.
 Alpha  occ. eigenvalues --  -20.53565 -11.32629 -11.23619 -11.23488 -11.23455
 Alpha  occ. eigenvalues --  -11.22563 -11.22514 -11.21977 -11.21922 -11.21838
 Alpha  occ. eigenvalues --  -11.21481  -1.37395  -1.10227  -1.06968  -1.05090
 Alpha  occ. eigenvalues --   -0.98191  -0.96167  -0.88132  -0.85261  -0.78852
 Alpha  occ. eigenvalues --   -0.76153  -0.71058  -0.66839  -0.65149  -0.62849
 Alpha  occ. eigenvalues --   -0.61425  -0.60632  -0.60181  -0.58327  -0.56025
 Alpha  occ. eigenvalues --   -0.55475  -0.53636  -0.51717  -0.51034  -0.49995
 Alpha  occ. eigenvalues --   -0.49619  -0.47799  -0.46898  -0.45445  -0.44375
 Alpha  occ. eigenvalues --   -0.44170  -0.43738  -0.39626
 Alpha virt. eigenvalues --    0.12454   0.14351   0.14716   0.15232   0.16337
 Alpha virt. eigenvalues --    0.18008   0.18262   0.18906   0.20239   0.21413
 Alpha virt. eigenvalues --    0.21750   0.22470   0.23512   0.24014   0.25302

 Mulliken atomic charges:
              1
     1  C   -0.166924
     2  C   -0.243788
     3  C   -0.185688
     4  C   -0.217492
     5  C   -0.234797
     6  C   -0.179403
     7  C   -0.247212
     8  C   -0.193506
     9  C    0.280154
    10  O   -0.393216
    11  C   -0.250757
    12  H    0.101481
    13  H    0.115786
    14  H    0.137896
    15  H    0.116210
    16  H    0.117598
    17  H    0.124686
    18  H    0.098416
    19  H    0.100936
    20  H    0.090762
    21  H    0.117349
    22  H    0.125601
    23  H    0.115299
    24  H    0.117320
    25  H    0.112663
    26  H    0.101677
    27  H    0.107108
    28  H    0.127697
    29  H    0.104145
 Sum of Mulliken atomic charges =   0.00000

 Dipole moment (field-independent basis, Debye):
    X=             -0.7537    Y=              1.4303    Z=             -2.5962  Tot=              3.0585
 Quadrupole moment (field-independent basis, Debye-Ang):
   XX=            -67.7470   YY=            -74.1978   ZZ=            -73.3846
   XY=              0.5176   XZ=              0.2461   YZ=              6.3864

 Normal termination of Gaussian 09 at Fri Mar  4 00:45:31 2016.
