 Gaussian 09, Revision A.01,
 Gaussian 09:  EM64L-G09RevA.01  8-May-2009

 -------------
 # mp2/cc-pVTZ
 -------------

 ------------------------
 3_Me_THP_ax_single_point
 ------------------------
 Symbolic Z-matrix:
 Charge =  0 Multiplicity = 1

                         Standard orientation:
 ---------------------------------------------------------------------
 Center     Atomic      Atomic             Coordinates (Angstroms)
 Number     Number       Type             X           Y           Z
 ---------------------------------------------------------------------
      1          6           0        0.222638   -1.237072    0.588674
      2          8           0       -0.827478   -1.241366   -0.377408
      3          6           0       -1.726468   -0.148166   -0.197181
      4          6           0       -1.011694    1.198485   -0.332498
      5          6           0        0.183422    1.267495    0.633599
      6          6           0        1.095231    0.026531    0.500692
      7          6           0        1.948172    0.044285   -0.777473
      8          1           0       -2.504857   -0.270675   -0.955816
      9          1           0       -2.202174   -0.226747    0.796873
     10          1           0       -1.719316    2.012074   -0.128138
     11          1           0       -0.674435    1.320082   -1.368797
     12          1           0       -0.196822    1.318676    1.663915
     13          1           0        0.761724    2.184649    0.467398
     14          1           0        1.776804    0.007448    1.363500
     15          1           0       -0.212578   -1.320855    1.599988
     16          1           0        1.328637   -0.012310   -1.677415
     17          1           0        2.635515   -0.809272   -0.797760
     18          1           0        2.549665    0.958710   -0.834649
     19          1           0        0.809847   -2.140204    0.395286
 ---------------------------------------------------------------------

 SCF Done:  E(RHF) =  -309.157984430     A.U. after   11 cycles
 E2 =    -0.1274510876D+01 EUMP2 =    -0.31043249530559D+03

 The electronic state is 1-A.
 Alpha  occ. eigenvalues --  -20.54551 -11.26942 -11.26786 -11.22774 -11.22272
 Alpha  occ. eigenvalues --  -11.22069 -11.21064  -1.36219  -1.08519  -1.03201
 Alpha  occ. eigenvalues --   -0.93205  -0.87502  -0.83763  -0.74179  -0.67157
 Alpha  occ. eigenvalues --   -0.63504  -0.62717  -0.61229  -0.57547  -0.55878
 Alpha  occ. eigenvalues --   -0.53974  -0.52516  -0.50656  -0.48480  -0.47316
 Alpha  occ. eigenvalues --   -0.44755  -0.43780  -0.39859
 Alpha virt. eigenvalues --    0.13509   0.15992   0.16235   0.18017   0.19861
 Alpha virt. eigenvalues --    0.20210   0.20879   0.21614   0.22924   0.24826
 Alpha virt. eigenvalues --    0.25324   0.26206   0.29177   0.30135   0.32837

 Mulliken atomic charges:
              1
     1  C    0.027733
     2  O   -0.398553
     3  C    0.028802
     4  C   -0.207955
     5  C   -0.210332
     6  C   -0.090532
     7  C   -0.309011
     8  H    0.105618
     9  H    0.059802
    10  H    0.109393
    11  H    0.097245
    12  H    0.101023
    13  H    0.105712
    14  H    0.107742
    15  H    0.077430
    16  H    0.103794
    17  H    0.099054
    18  H    0.094651
    19  H    0.098385
 Sum of Mulliken atomic charges =   0.00000

 Dipole moment (field-independent basis, Debye):
    X=              0.2709    Y=              1.2194    Z=              0.9681  Tot=              1.5803
 Quadrupole moment (field-independent basis, Debye-Ang):
   XX=            -43.8926   YY=            -47.1119   ZZ=            -45.2232
   XY=             -2.3236   XZ=              0.0658   YZ=             -1.7245

 Normal termination of Gaussian 09 at Fri Mar  4 00:59:01 2016.
