 Gaussian 09, Revision A.01,
 Gaussian 09:  EM64L-G09RevA.01  8-May-2009

 -------------
 # mp2/cc-pVTZ
 -------------

 ------------------------
 3_Me_THP_eq_single_point
 ------------------------
 Symbolic Z-matrix:
 Charge =  0 Multiplicity = 1

                         Standard orientation:
 ---------------------------------------------------------------------
 Center     Atomic      Atomic             Coordinates (Angstroms)
 Number     Number       Type             X           Y           Z
 ---------------------------------------------------------------------
      1          6           0        0.261842   -1.230040    0.129479
      2          8           0       -1.108199   -1.245473   -0.262727
      3          6           0       -1.837296   -0.141637    0.269533
      4          6           0       -1.254111    1.195359   -0.192656
      5          6           0        0.239430    1.276704    0.159694
      6          6           0        0.994418    0.033358   -0.344847
      7          6           0        2.462224    0.022439    0.095337
      8          1           0       -2.868596   -0.271451   -0.070794
      9          1           0       -1.831571   -0.195761    1.372873
     10          1           0       -1.810443    2.019918    0.270928
     11          1           0       -1.386491    1.282952   -1.278809
     12          1           0        0.353399    1.342909    1.252728
     13          1           0        0.687006    2.187693   -0.257134
     14          1           0        0.956479    0.033310   -1.444037
     15          1           0        0.332398   -1.308859    1.230053
     16          1           0        2.548416    0.006175    1.189055
     17          1           0        2.985841    0.915157   -0.264500
     18          1           0        2.992222   -0.854297   -0.294838
     19          1           0        0.707887   -2.131054   -0.302952
 ---------------------------------------------------------------------

 SCF Done:  E(RHF) =  -309.160727117     A.U. after   11 cycles
 E2 =    -0.1273501785D+01 EUMP2 =    -0.31043422890218D+03

 The electronic state is 1-A.
 Alpha  occ. eigenvalues --  -20.54546 -11.26926 -11.26772 -11.22675 -11.22253
 Alpha  occ. eigenvalues --  -11.22100 -11.21759  -1.36242  -1.08810  -1.03442
 Alpha  occ. eigenvalues --   -0.93430  -0.87577  -0.82595  -0.76381  -0.66737
 Alpha  occ. eigenvalues --   -0.64000  -0.61658  -0.60401  -0.59559  -0.54873
 Alpha  occ. eigenvalues --   -0.53722  -0.52620  -0.51742  -0.48569  -0.47174
 Alpha  occ. eigenvalues --   -0.44851  -0.44232  -0.39863
 Alpha virt. eigenvalues --    0.14051   0.15543   0.15820   0.17832   0.19628
 Alpha virt. eigenvalues --    0.20526   0.21184   0.21480   0.23131   0.24036
 Alpha virt. eigenvalues --    0.25247   0.27022   0.27451   0.30591   0.31595

 Mulliken atomic charges:
              1
     1  C    0.038648
     2  O   -0.391197
     3  C    0.030366
     4  C   -0.197543
     5  C   -0.200458
     6  C   -0.078257
     7  C   -0.309009
     8  H    0.105280
     9  H    0.059859
    10  H    0.101993
    11  H    0.091944
    12  H    0.089382
    13  H    0.106674
    14  H    0.099290
    15  H    0.056464
    16  H    0.088507
    17  H    0.101198
    18  H    0.100974
    19  H    0.105886
 Sum of Mulliken atomic charges =   0.00000

 Dipole moment (field-independent basis, Debye):
    X=              0.6831    Y=              1.2729    Z=              0.6102  Tot=              1.5682
 Quadrupole moment (field-independent basis, Debye-Ang):
   XX=            -44.7540   YY=            -47.1619   ZZ=            -45.0590
   XY=             -3.0541   XZ=             -1.2845   YZ=             -0.9052

 Normal termination of Gaussian 09 at Fri Mar  4 01:12:00 2016.
