 Gaussian 09, Revision A.01,
 Gaussian 09:  EM64L-G09RevA.01  8-May-2009

 -------------
 # mp2/cc-pVTZ
 -------------

 ------------------------
 4_Me_THP_ax_single_point
 ------------------------
 Symbolic Z-matrix:
 Charge =  0 Multiplicity = 1

                         Standard orientation:
 ---------------------------------------------------------------------
 Center     Atomic      Atomic             Coordinates (Angstroms)
 Number     Number       Type             X           Y           Z
 ---------------------------------------------------------------------
      1          6           0        0.995245    1.182859   -0.333142
      2          8           0        1.763335    0.000019   -0.115230
      3          6           0        0.995272   -1.182862   -0.333137
      4          6           0       -0.209713   -1.255932    0.609449
      5          6           0       -1.105223   -0.000003    0.506734
      6          6           0       -0.209740    1.255938    0.609442
      7          6           0       -1.985452   -0.000017   -0.755109
      8          1           0       -2.631822   -0.884958   -0.777694
      9          1           0       -1.398087    0.000005   -1.679245
     10          1           0       -2.631868    0.884887   -0.777681
     11          1           0        0.674008   -1.222088   -1.387714
     12          1           0        1.678500   -2.019654   -0.162058
     13          1           0        0.165817   -1.348919    1.636430
     14          1           0       -0.790301   -2.162600    0.393485
     15          1           0       -1.783137   -0.000011    1.370812
     16          1           0        0.165784    1.348953    1.636424
     17          1           0        1.678453    2.019672   -0.162074
     18          1           0        0.673961    1.222066   -1.387717
     19          1           0       -0.790330    2.162600    0.393454
 ---------------------------------------------------------------------

 SCF Done:  E(RHF) =  -309.156591539     A.U. after   11 cycles
 E2 =    -0.1274498411D+01 EUMP2 =    -0.31043108995095D+03

 The electronic state is 1-A.
 Alpha  occ. eigenvalues --  -20.54433 -11.26857 -11.26855 -11.23115 -11.21980
 Alpha  occ. eigenvalues --  -11.21978 -11.21608  -1.36095  -1.08980  -1.02002
 Alpha  occ. eigenvalues --   -0.95018  -0.85658  -0.85046  -0.73971  -0.67462
 Alpha  occ. eigenvalues --   -0.63288  -0.62501  -0.59660  -0.59525  -0.57162
 Alpha  occ. eigenvalues --   -0.53745  -0.52150  -0.49851  -0.49496  -0.47273
 Alpha  occ. eigenvalues --   -0.44390  -0.44087  -0.39817
 Alpha virt. eigenvalues --    0.13410   0.15654   0.16751   0.17604   0.19695
 Alpha virt. eigenvalues --    0.20233   0.21500   0.21688   0.22463   0.24092
 Alpha virt. eigenvalues --    0.26551   0.26799   0.27870   0.30633   0.33220

 Mulliken atomic charges:
              1
     1  C    0.020754
     2  O   -0.393450
     3  C    0.020749
     4  C   -0.192379
     5  C   -0.097742
     6  C   -0.192378
     7  C   -0.311357
     8  H    0.101981
     9  H    0.091488
    10  H    0.101983
    11  H    0.064480
    12  H    0.108177
    13  H    0.100729
    14  H    0.096005
    15  H    0.111584
    16  H    0.100728
    17  H    0.108173
    18  H    0.064472
    19  H    0.096004
 Sum of Mulliken atomic charges =   0.00000

 Dipole moment (field-independent basis, Debye):
    X=             -1.6267    Y=             -0.0001    Z=             -0.1144  Tot=              1.6307
 Quadrupole moment (field-independent basis, Debye-Ang):
   XX=            -50.0180   YY=            -42.3950   ZZ=            -44.9945
   XY=             -0.0002   XZ=             -0.2747   YZ=              0.0001

 Normal termination of Gaussian 09 at Fri Mar  4 01:25:20 2016.
