 Gaussian 09, Revision A.01,
 Gaussian 09:  EM64L-G09RevA.01  8-May-2009

 -------------
 # mp2/cc-pVTZ
 -------------

 ------------------------
 4_Me_THP_eq_single_point
 ------------------------
 Symbolic Z-matrix:
 Charge =  0 Multiplicity = 1

                         Standard orientation:
 ---------------------------------------------------------------------
 Center     Atomic      Atomic             Coordinates (Angstroms)
 Number     Number       Type             X           Y           Z
 ---------------------------------------------------------------------
      1          6           0       -1.229336    1.183086    0.176150
      2          8           0       -1.835804    0.000008   -0.339026
      3          6           0       -1.229371   -1.183068    0.176143
      4          6           0        0.261742   -1.253010   -0.163429
      5          6           0        1.004238   -0.000011    0.335801
      6          6           0        0.261755    1.253008   -0.163433
      7          6           0        2.481617   -0.000007   -0.070451
      8          1           0        2.999496    0.885930    0.315145
      9          1           0        2.588014   -0.000006   -1.162291
     10          1           0        2.999493   -0.885960    0.315115
     11          1           0       -1.369990   -1.220566    1.271043
     12          1           0       -1.780144   -2.018883   -0.264474
     13          1           0        0.375024   -1.335550   -1.253255
     14          1           0        0.696116   -2.159917    0.278119
     15          1           0        0.953431   -0.000010    1.436698
     16          1           0        0.375035    1.335548   -1.253250
     17          1           0       -1.780116    2.018893   -0.264478
     18          1           0       -1.369964    1.220568    1.271034
     19          1           0        0.696170    2.159897    0.278124
 ---------------------------------------------------------------------

 SCF Done:  E(RHF) =  -309.160811537     A.U. after   11 cycles
 E2 =    -0.1273595056D+01 EUMP2 =    -0.31043440659292D+03

 The electronic state is 1-A.
 Alpha  occ. eigenvalues --  -20.54532 -11.26942 -11.26940 -11.23043 -11.21974
 Alpha  occ. eigenvalues --  -11.21972 -11.21558  -1.36242  -1.09219  -1.02070
 Alpha  occ. eigenvalues --   -0.95475  -0.85816  -0.83280  -0.76251  -0.66131
 Alpha  occ. eigenvalues --   -0.63216  -0.62415  -0.61917  -0.59327  -0.54414
 Alpha  occ. eigenvalues --   -0.53933  -0.52082  -0.51518  -0.49432  -0.46748
 Alpha  occ. eigenvalues --   -0.44460  -0.44180  -0.40196
 Alpha virt. eigenvalues --    0.14128   0.15595   0.16293   0.16660   0.20375
 Alpha virt. eigenvalues --    0.20605   0.21430   0.22270   0.23065   0.23787
 Alpha virt. eigenvalues --    0.24950   0.26009   0.26772   0.30833   0.32222

 Mulliken atomic charges:
              1
     1  C    0.028636
     2  O   -0.392743
     3  C    0.028642
     4  C   -0.184847
     5  C   -0.095094
     6  C   -0.184845
     7  C   -0.299353
     8  H    0.098866
     9  H    0.090829
    10  H    0.098865
    11  H    0.059886
    12  H    0.105608
    13  H    0.089536
    14  H    0.099463
    15  H    0.102041
    16  H    0.089542
    17  H    0.105608
    18  H    0.059899
    19  H    0.099462
 Sum of Mulliken atomic charges =   0.00000

 Dipole moment (field-independent basis, Debye):
    X=              1.3528    Y=              0.0000    Z=              0.8676  Tot=              1.6071
 Quadrupole moment (field-independent basis, Debye-Ang):
   XX=            -50.0827   YY=            -42.4015   ZZ=            -45.2057
   XY=              0.0000   XZ=             -1.4134   YZ=              0.0000

 Normal termination of Gaussian 09 at Fri Mar  4 01:38:21 2016.
