 Gaussian 09, Revision E.01,
 Gaussian 09:  ES64L-G09RevE.01 30-Nov-2015

 -------------
 # mp2/cc-pVTZ
 -------------

 -------------------------
 aagtxgtx6060_single_point
 -------------------------
 Symbolic Z-matrix:
 Charge =  0 Multiplicity = 1

                         Standard orientation:
 ---------------------------------------------------------------------
 Center     Atomic      Atomic             Coordinates (Angstroms)
 Number     Number       Type             X           Y           Z
 ---------------------------------------------------------------------
      1          6           0        3.570254    0.275826   -0.337546
      2          6           0        2.603827    1.027191   -1.249499
      3          6           0        2.785754   -0.646427    0.600162
      4          8           0        1.802964    0.122788    1.334579
      5          6           0        1.559154    1.784241   -0.424262
      6          6           0        0.866611    0.844973    0.574496
      7          8           0       -0.000000   -0.000002   -0.190823
      8          6           0       -0.866613   -0.844986    0.574485
      9          8           0       -1.802963   -0.122811    1.334580
     10          6           0       -1.559160   -1.784239   -0.424284
     11          6           0       -2.785751    0.646419    0.600174
     12          6           0       -3.570254   -0.275817   -0.337547
     13          6           0       -2.603830   -1.027172   -1.249512
     14          1           0        4.123542    1.014960    0.263766
     15          8           0        4.473670   -0.527640   -1.085111
     16          1           0        2.096016    0.294270   -1.896206
     17          8           0        3.375870    1.917571   -2.048246
     18          1           0        2.276499   -1.422503    0.015034
     19          6           0        3.661106   -1.314210    1.654666
     20          8           0        0.634072    2.462591   -1.266555
     21          1           0        2.066949    2.565700    0.150150
     22          1           0        0.272515    1.406978    1.299770
     23          1           0       -0.272517   -1.407003    1.299750
     24          1           0       -2.066957   -2.565703    0.150117
     25          8           0       -0.634081   -2.462581   -1.266588
     26          1           0       -2.276493    1.422503    0.015057
     27          6           0       -3.661099    1.314190    1.654688
     28          8           0       -4.473667    0.527664   -1.085102
     29          1           0       -4.123545   -1.014957    0.263754
     30          8           0       -3.375877   -1.917537   -2.048273
     31          1           0       -2.096016   -0.294243   -1.896208
     32          1           0        4.187689   -0.539550    2.232220
     33          1           0        4.404049   -1.939502    1.156168
     34          8           0        2.908992   -2.164827    2.508708
     35          1           0       -4.187684    0.539525    2.232231
     36          1           0       -4.404041    1.939492    1.156200
     37          8           0       -2.908982    2.164792    2.508742
     38          1           0       -2.256208    1.616751    2.965456
     39          1           0        0.010848   -1.811403   -1.581289
     40          1           0       -2.765099   -2.488490   -2.537151
     41          1           0       -4.877704   -0.037378   -1.759638
     42          1           0       -0.010854    1.811414   -1.581264
     43          1           0        2.765091    2.488527   -2.537117
     44          1           0        4.877707    0.037413   -1.759640
     45          1           0        2.256215   -1.616795    2.965429
 ---------------------------------------------------------------------

 SCF Done:  E(RHF) =  -1291.15848206     A.U. after   13 cycles
 E2 =    -0.4632612793D+01 EUMP2 =    -0.12957910948569D+04

 The electronic state is 1-A.
 Alpha  occ. eigenvalues --  -20.60489 -20.59390 -20.59390 -20.58498 -20.58498
 Alpha  occ. eigenvalues --  -20.57722 -20.57722 -20.57181 -20.57181 -20.55878
 Alpha  occ. eigenvalues --  -20.55878 -11.36628 -11.36626 -11.30887 -11.30886
 Alpha  occ. eigenvalues --  -11.30278 -11.30278 -11.30227 -11.30227 -11.30169
 Alpha  occ. eigenvalues --  -11.30169 -11.28304 -11.28304  -1.46579  -1.42088
 Alpha  occ. eigenvalues --   -1.39829  -1.39728  -1.38810  -1.38323  -1.36849
 Alpha  occ. eigenvalues --   -1.36389  -1.36388  -1.35884  -1.35246  -1.07700
 Alpha  occ. eigenvalues --   -1.07633  -1.07156  -1.04232  -0.96007  -0.93895
 Alpha  occ. eigenvalues --   -0.89657  -0.87677  -0.85767  -0.85493  -0.82672
 Alpha  occ. eigenvalues --   -0.79222  -0.75650  -0.75642  -0.73900  -0.73567
 Alpha  occ. eigenvalues --   -0.72429  -0.71191  -0.71150  -0.69504  -0.68264
 Alpha  occ. eigenvalues --   -0.67187  -0.67161  -0.66360  -0.66045  -0.63672
 Alpha  occ. eigenvalues --   -0.63652  -0.62948  -0.62699  -0.62579  -0.60515
 Alpha  occ. eigenvalues --   -0.60052  -0.59368  -0.58644  -0.58232  -0.57689
 Alpha  occ. eigenvalues --   -0.56147  -0.56141  -0.55024  -0.55014  -0.54583
 Alpha  occ. eigenvalues --   -0.54011  -0.51947  -0.51714  -0.51205  -0.50054
 Alpha  occ. eigenvalues --   -0.50019  -0.49288  -0.48758  -0.46820  -0.46560
 Alpha  occ. eigenvalues --   -0.46037  -0.45854  -0.44477  -0.44285  -0.43814
 Alpha  occ. eigenvalues --   -0.43532
 Alpha virt. eigenvalues --    0.11186   0.13447   0.13723   0.14726   0.15016
 Alpha virt. eigenvalues --    0.15332   0.15995   0.17166   0.17292   0.17870
 Alpha virt. eigenvalues --    0.18738   0.19709   0.19986   0.20671   0.21604

 Mulliken charges:
               1
     1  C    0.110464
     2  C    0.111556
     3  C    0.084509
     4  O   -0.454340
     5  C    0.076418
     6  C    0.293061
     7  O   -0.512164
     8  C    0.293061
     9  O   -0.454341
    10  C    0.076418
    11  C    0.084509
    12  C    0.110464
    13  C    0.111556
    14  H    0.093520
    15  O   -0.435639
    16  H    0.082884
    17  O   -0.443424
    18  H    0.108862
    19  C    0.065368
    20  O   -0.445355
    21  H    0.137796
    22  H    0.138637
    23  H    0.138637
    24  H    0.137796
    25  O   -0.445355
    26  H    0.108863
    27  C    0.065368
    28  O   -0.435639
    29  H    0.093521
    30  O   -0.443425
    31  H    0.082885
    32  H    0.068570
    33  H    0.116807
    34  O   -0.425422
    35  H    0.068571
    36  H    0.116807
    37  O   -0.425422
    38  H    0.233433
    39  H    0.246010
    40  H    0.245366
    41  H    0.246999
    42  H    0.246010
    43  H    0.245366
    44  H    0.247000
    45  H    0.233433
 Sum of Mulliken charges =  -0.00000

 Dipole moment (field-independent basis, Debye):
    X=             -0.0000    Y=              0.0000    Z=             -1.5828  Tot=              1.5828
 Quadrupole moment (field-independent basis, Debye-Ang):
   XX=           -144.0732   YY=           -154.1382   ZZ=           -131.6540
   XY=             15.5044   XZ=              0.0000   YZ=             -0.0002

 Normal termination of Gaussian 09 at Thu Jul 12 01:32:33 2018.
