 Gaussian 09, Revision A.01,
 Gaussian 09:  EM64L-G09RevA.01  8-May-2009

 -------------
 # mp2/cc-pVTZ
 -------------

 --------------------------
 aagtxgtx16080_single_point
 --------------------------
 Symbolic Z-matrix:
 Charge =  0 Multiplicity = 1

                         Standard orientation:
 ---------------------------------------------------------------------
 Center     Atomic      Atomic             Coordinates (Angstroms)
 Number     Number       Type             X           Y           Z
 ---------------------------------------------------------------------
      1          6           0        3.311108   -0.534644    0.658386
      2          6           0        2.250321   -1.634387    0.627926
      3          6           0        2.684241    0.768183    0.157557
      4          8           0        2.169406    0.570942   -1.181224
      5          6           0        1.648820   -1.762637   -0.775213
      6          6           0        1.158850   -0.400962   -1.296184
      7          8           0       -0.000525   -0.005319   -0.568408
      8          6           0       -1.158672    0.394518   -1.296307
      9          8           0       -2.172664   -0.573531   -1.179727
     10          6           0       -1.643785    1.758650   -0.777191
     11          6           0       -2.688169   -0.767317    0.159422
     12          6           0       -3.308795    0.538769    0.659615
     13          6           0       -2.243815    1.634346    0.626845
     14          1           0        4.137282   -0.823068   -0.010820
     15          8           0        3.795723   -0.313362    1.975876
     16          1           0        1.456674   -1.367768    1.343575
     17          8           0        2.880533   -2.844571    1.035614
     18          1           0        1.858188    1.044491    0.825883
     19          6           0        3.640646    1.947608    0.067850
     20          8           0        0.640679   -2.761248   -0.827312
     21          1           0        2.435849   -2.107802   -1.454300
     22          1           0        0.921733   -0.464830   -2.363007
     23          1           0       -0.921494    0.456062   -2.363246
     24          1           0       -2.430781    2.104634   -1.455912
     25          8           0       -0.633463    2.754812   -0.832788
     26          1           0       -1.863313   -1.047461    0.827584
     27          6           0       -3.651037   -1.941605    0.070637
     28          8           0       -3.792939    0.320830    1.977821
     29          1           0       -4.134496    0.829958   -0.008991
     30          8           0       -2.868985    2.847355    1.034024
     31          1           0       -1.450327    1.365525    1.341847
     32          1           0        4.468203    1.707356   -0.614912
     33          1           0        4.053322    2.151116    1.057513
     34          8           0        2.957166    3.126322   -0.347744
     35          1           0       -4.477570   -1.696809   -0.611804
     36          1           0       -4.064399   -2.142194    1.060617
     37          8           0       -2.974907   -3.124475   -0.344729
     38          1           0       -2.678205   -2.991281   -1.255697
     39          1           0        0.174016    2.417470   -0.412965
     40          1           0       -2.232834    3.568408    0.918486
     41          1           0       -4.036571    1.182727    2.345880
     42          1           0       -0.167433   -2.422705   -0.409723
     43          1           0        2.246139   -3.567778    0.924049
     44          1           0        4.043242   -1.173886    2.344551
     45          1           0        2.664303    2.992680   -1.259882
 ---------------------------------------------------------------------

 SCF Done:  E(RHF) =  -1291.15783489     A.U. after   12 cycles
 E2 =    -0.4633203582D+01 EUMP2 =    -0.12957910384758D+04

 The electronic state is 1-A.
 Alpha  occ. eigenvalues --  -20.59964 -20.59236 -20.59232 -20.57934 -20.57930
 Alpha  occ. eigenvalues --  -20.57387 -20.57380 -20.57005 -20.56999 -20.56271
 Alpha  occ. eigenvalues --  -20.56250 -11.36844 -11.36841 -11.30547 -11.30544
 Alpha  occ. eigenvalues --  -11.30158 -11.30151 -11.30034 -11.30027 -11.29917
 Alpha  occ. eigenvalues --  -11.29912 -11.28485 -11.28471  -1.46436  -1.42132
 Alpha  occ. eigenvalues --   -1.39427  -1.39407  -1.38421  -1.37959  -1.36904
 Alpha  occ. eigenvalues --   -1.36132  -1.36084  -1.36075  -1.35287  -1.07415
 Alpha  occ. eigenvalues --   -1.07382  -1.06978  -1.04170  -0.95724  -0.94182
 Alpha  occ. eigenvalues --   -0.89496  -0.88004  -0.85565  -0.85469  -0.82587
 Alpha  occ. eigenvalues --   -0.79343  -0.75454  -0.75383  -0.73566  -0.73291
 Alpha  occ. eigenvalues --   -0.72363  -0.71791  -0.71492  -0.68752  -0.68325
 Alpha  occ. eigenvalues --   -0.67526  -0.66859  -0.66737  -0.65639  -0.63860
 Alpha  occ. eigenvalues --   -0.63356  -0.63329  -0.61997  -0.61509  -0.60085
 Alpha  occ. eigenvalues --   -0.59824  -0.59129  -0.58481  -0.57790  -0.56861
 Alpha  occ. eigenvalues --   -0.56152  -0.56029  -0.55101  -0.54573  -0.54306
 Alpha  occ. eigenvalues --   -0.53933  -0.53324  -0.51239  -0.51080  -0.50654
 Alpha  occ. eigenvalues --   -0.49330  -0.49049  -0.47883  -0.46724  -0.46462
 Alpha  occ. eigenvalues --   -0.46098  -0.46032  -0.44513  -0.44275  -0.43755
 Alpha  occ. eigenvalues --   -0.43079
 Alpha virt. eigenvalues --    0.12443   0.13502   0.14091   0.14803   0.15142
 Alpha virt. eigenvalues --    0.16258   0.16503   0.16909   0.17078   0.18078
 Alpha virt. eigenvalues --    0.18434   0.19855   0.20462   0.20512   0.20981

 Mulliken atomic charges:
              1
     1  C    0.115552
     2  C    0.107008
     3  C    0.065644
     4  O   -0.437545
     5  C    0.078167
     6  C    0.274523
     7  O   -0.478205
     8  C    0.274348
     9  O   -0.437514
    10  C    0.078143
    11  C    0.066296
    12  C    0.115495
    13  C    0.106907
    14  H    0.094685
    15  O   -0.436556
    16  H    0.098644
    17  O   -0.443793
    18  H    0.105686
    19  C    0.067086
    20  O   -0.455251
    21  H    0.134991
    22  H    0.122721
    23  H    0.122802
    24  H    0.135043
    25  O   -0.455559
    26  H    0.105620
    27  C    0.067233
    28  O   -0.436553
    29  H    0.094598
    30  O   -0.443872
    31  H    0.098768
    32  H    0.075989
    33  H    0.118180
    34  O   -0.431387
    35  H    0.075639
    36  H    0.118075
    37  O   -0.431270
    38  H    0.236989
    39  H    0.253730
    40  H    0.246162
    41  H    0.247991
    42  H    0.253509
    43  H    0.246123
    44  H    0.247992
    45  H    0.237169
 Sum of Mulliken atomic charges =   0.00000

 Dipole moment (field-independent basis, Debye):
    X=              0.0219    Y=              0.0066    Z=             -1.8212  Tot=              1.8213
 Quadrupole moment (field-independent basis, Debye-Ang):
   XX=           -138.3923   YY=           -153.4424   ZZ=           -132.4316
   XY=             -9.4032   XZ=              0.0155   YZ=             -0.0144

 1\1\GINC-ROCK\SP\RMP2-FC\CC-pVTZ\C12H22O11\STYLIANAKIS\15-May-2017\0\\
 # mp2/cc-pVTZ\\aagtxgtx16080_single_point\\0,1\C\C,1,1.52827731\C,1,1.
 53008173,2,108.77320371\O,3,1.4478583,1,109.41130205,2,-58.22505538,0\
 C,2,1.53200867,1,110.54948041,3,55.48599827,0\C,4,1.40678236,3,115.157
 68787,1,61.41239258,0\O,6,1.42490059,4,110.54339228,3,64.11992824,0\C,
 7,1.42513545,6,118.57120133,4,108.7137036,0\O,8,1.40673009,7,110.51044
 895,6,109.17546085,0\C,8,1.53807417,7,109.4364,6,-128.55151688,0\C,9,1
 .44797046,8,115.17385509,7,64.14638,0\C,11,1.53010794,9,109.42049905,8

 Normal termination of Gaussian 09 at Mon May 15 16:21:16 2017.
