 Gaussian 09, Revision A.01,
 Gaussian 09:  EM64L-G09RevA.01  8-May-2009

 -------------
 # mp2/cc-pVTZ
 -------------

 ----------------------------------------------
 acetaldehyde_dimethylacetal_g_ecl_single_point
 ----------------------------------------------
 Symbolic Z-matrix:
 Charge =  0 Multiplicity = 1

                         Standard orientation:
 ---------------------------------------------------------------------
 Center     Atomic      Atomic             Coordinates (Angstroms)
 Number     Number       Type             X           Y           Z
 ---------------------------------------------------------------------
      1          6           0       -2.009067   -0.847506    0.094642
      2          8           0       -1.326908    0.372329   -0.180852
      3          6           0        0.003012    0.404801    0.244243
      4          6           0        0.528258    1.811496    0.007001
      5          8           0        0.735554   -0.570550   -0.496407
      6          6           0        1.913659   -1.039888    0.136868
      7          1           0       -3.043355   -0.700702   -0.222055
      8          1           0       -1.568659   -1.683403   -0.458284
      9          1           0       -1.990349   -1.072794    1.171665
     10          1           0        0.062005    0.130162    1.316707
     11          1           0        2.312639   -1.838204   -0.492572
     12          1           0        2.676472   -0.253881    0.232258
     13          1           0        1.699059   -1.445846    1.137441
     14          1           0       -0.045495    2.533759    0.594714
     15          1           0        0.432354    2.057823   -1.053973
     16          1           0        1.580981    1.885434    0.295639
 ---------------------------------------------------------------------

 SCF Done:  E(RHF) =  -307.107640868     A.U. after   12 cycles
 E2 =    -0.1177868857D+01 EUMP2 =    -0.30828550972504D+03

 The electronic state is 1-A.
 Alpha  occ. eigenvalues --  -20.55497 -20.55423 -11.33145 -11.27554 -11.26637
 Alpha  occ. eigenvalues --  -11.21434  -1.40782  -1.33799  -1.02161  -0.93037
 Alpha  occ. eigenvalues --   -0.91442  -0.81327  -0.68894  -0.67912  -0.65482
 Alpha  occ. eigenvalues --   -0.61402  -0.59209  -0.58219  -0.54970  -0.53357
 Alpha  occ. eigenvalues --   -0.51974  -0.48712  -0.47886  -0.43740  -0.42197
 Alpha virt. eigenvalues --    0.13823   0.16226   0.17321   0.18909   0.20952
 Alpha virt. eigenvalues --    0.22443   0.22984   0.23666   0.24072   0.26638
 Alpha virt. eigenvalues --    0.26867   0.27831   0.33244   0.35861   0.37514

 Mulliken atomic charges:
              1
     1  C   -0.073337
     2  O   -0.353593
     3  C    0.327394
     4  C   -0.255846
     5  O   -0.379695
     6  C   -0.069592
     7  H    0.107480
     8  H    0.090708
     9  H    0.052678
    10  H    0.033833
    11  H    0.111599
    12  H    0.067759
    13  H    0.060937
    14  H    0.098881
    15  H    0.102719
    16  H    0.078075
 Sum of Mulliken atomic charges =   0.00000

 Dipole moment (field-independent basis, Debye):
    X=              0.9857    Y=             -0.6923    Z=              1.7405  Tot=              2.1167
 Quadrupole moment (field-independent basis, Debye-Ang):
   XX=            -35.1409   YY=            -37.0468   ZZ=            -39.1166
   XY=              1.5261   XZ=              0.1195   YZ=             -0.3232

 Normal termination of Gaussian 09 at Fri Mar  4 01:45:02 2016.
