 Gaussian 09, Revision A.01,
 Gaussian 09:  EM64L-G09RevA.01  8-May-2009

 -------------
 # mp2/cc-pVTZ
 -------------

 --------------------------------------------
 acetaldehyde_dimethylacetal_g_g_single_point
 --------------------------------------------
 Symbolic Z-matrix:
 Charge =  0 Multiplicity = 1

                         Standard orientation:
 ---------------------------------------------------------------------
 Center     Atomic      Atomic             Coordinates (Angstroms)
 Number     Number       Type             X           Y           Z
 ---------------------------------------------------------------------
      1          6           0       -1.381164   -1.311926   -0.384768
      2          8           0       -0.704698   -0.690925    0.706832
      3          6           0       -0.047209    0.534637    0.420802
      4          6           0       -0.958089    1.615758   -0.144301
      5          8           0        1.018337    0.368318   -0.491873
      6          6           0        2.090400   -0.430688   -0.000575
      7          1           0       -1.642545   -2.317139   -0.047378
      8          1           0       -2.302912   -0.777459   -0.648215
      9          1           0       -0.738147   -1.382080   -1.269785
     10          1           0        0.349751    0.833668    1.401775
     11          1           0        2.856890   -0.436374   -0.778069
     12          1           0        2.511916    0.000491    0.919237
     13          1           0        1.767224   -1.457557    0.205333
     14          1           0       -1.842912    1.728993    0.488541
     15          1           0       -1.272127    1.374733   -1.163504
     16          1           0       -0.419879    2.566898   -0.174544
 ---------------------------------------------------------------------

 SCF Done:  E(RHF) =  -307.108579652     A.U. after   12 cycles
 E2 =    -0.1178920164D+01 EUMP2 =    -0.30828749981575D+03

 The electronic state is 1-A.
 Alpha  occ. eigenvalues --  -20.55605 -20.55337 -11.32960 -11.26868 -11.26714
 Alpha  occ. eigenvalues --  -11.21686  -1.40451  -1.33462  -1.02141  -0.93488
 Alpha  occ. eigenvalues --   -0.91714  -0.79951  -0.69254  -0.67664  -0.65267
 Alpha  occ. eigenvalues --   -0.60985  -0.59473  -0.57868  -0.55019  -0.52946
 Alpha  occ. eigenvalues --   -0.51675  -0.51133  -0.45312  -0.43824  -0.43182
 Alpha virt. eigenvalues --    0.14229   0.16161   0.17131   0.19577   0.21473
 Alpha virt. eigenvalues --    0.21794   0.22343   0.23577   0.24227   0.25120
 Alpha virt. eigenvalues --    0.27159   0.29427   0.32524   0.34837   0.37320

 Mulliken atomic charges:
              1
     1  C   -0.099636
     2  O   -0.390684
     3  C    0.348157
     4  C   -0.293444
     5  O   -0.386401
     6  C   -0.081508
     7  H    0.113279
     8  H    0.076605
     9  H    0.086810
    10  H    0.071234
    11  H    0.103756
    12  H    0.065996
    13  H    0.084057
    14  H    0.098276
    15  H    0.095724
    16  H    0.107779
 Sum of Mulliken atomic charges =   0.00000

 Dipole moment (field-independent basis, Debye):
    X=              0.0134    Y=             -0.0498    Z=             -0.1725  Tot=              0.1801
 Quadrupole moment (field-independent basis, Debye-Ang):
   XX=            -35.0719   YY=            -36.8415   ZZ=            -39.8196
   XY=             -0.9719   XZ=              2.4614   YZ=              2.5924

 Normal termination of Gaussian 09 at Fri Mar  4 01:51:56 2016.
