 Gaussian 09, Revision A.01,
 Gaussian 09:  EM64L-G09RevA.01  8-May-2009

 -------------
 # mp2/cc-pVTZ
 -------------

 -----------------------------
 C_Et_glycoside_g_single_point
 -----------------------------
 Symbolic Z-matrix:
 Charge =  0 Multiplicity = 1

                         Standard orientation:
 ---------------------------------------------------------------------
 Center     Atomic      Atomic             Coordinates (Angstroms)
 Number     Number       Type             X           Y           Z
 ---------------------------------------------------------------------
      1          6           0        1.274136   -0.627259   -0.580884
      2          8           0       -0.046324   -1.196801   -0.644328
      3          6           0       -0.988844   -0.728715    0.316229
      4          6           0       -1.156010    0.800341    0.222238
      5          6           0        0.202917    1.495988    0.274129
      6          6           0        1.155640    0.898181   -0.757254
      7          6           0       -2.293998   -1.479764    0.083207
      8          8           0       -2.857522   -1.071841   -1.159761
      9          8           0       -2.020594    1.318469    1.243095
     10          8           0        0.094088    2.890910   -0.008024
     11          8           0        2.452157    1.479387   -0.669275
     12          6           0        2.073635   -1.081745    0.648041
     13          6           0        2.275379   -2.600626    0.691431
     14          1           0       -0.653579   -0.986106    1.338552
     15          1           0       -1.654882    1.042020   -0.719601
     16          1           0        0.639314    1.364927    1.279650
     17          1           0        0.726757    1.086154   -1.752527
     18          1           0        1.769771   -1.027411   -1.471891
     19          1           0        1.589896   -0.746161    1.574067
     20          1           0        3.040498   -0.569312    0.611710
     21          1           0       -2.071518   -2.555436    0.082931
     22          1           0       -1.657884    1.085031    2.110452
     23          1           0       -0.648009    3.242676    0.504719
     24          1           0        2.343015    2.439028   -0.734115
     25          1           0        2.856278   -2.892911    1.572484
     26          1           0        1.318463   -3.130915    0.722416
     27          1           0        2.816639   -2.949773   -0.195652
     28          1           0       -3.670877   -1.566364   -1.314962
     29          1           0       -2.975445   -1.254832    0.915284
 ---------------------------------------------------------------------

 SCF Done:  E(RHF) =  -686.797993207     A.U. after   12 cycles
 E2 =    -0.2561539924D+01 EUMP2 =    -0.68935953313104D+03

 The electronic state is 1-A.
 Alpha  occ. eigenvalues --  -20.57356 -20.56197 -20.55806 -20.55624 -20.55429
 Alpha  occ. eigenvalues --  -11.29235 -11.28624 -11.28518 -11.28229 -11.28190
 Alpha  occ. eigenvalues --  -11.28118 -11.22180 -11.21385  -1.39204  -1.37376
 Alpha  occ. eigenvalues --   -1.36641  -1.35351  -1.34608  -1.07002  -1.05415
 Alpha  occ. eigenvalues --   -1.01111  -0.93600  -0.88326  -0.83787  -0.82655
 Alpha  occ. eigenvalues --   -0.76958  -0.72263  -0.70980  -0.70041  -0.67407
 Alpha  occ. eigenvalues --   -0.65666  -0.64670  -0.63671  -0.61690  -0.61199
 Alpha  occ. eigenvalues --   -0.59727  -0.58568  -0.56947  -0.54913  -0.54739
 Alpha  occ. eigenvalues --   -0.54064  -0.53002  -0.51431  -0.50822  -0.50027
 Alpha  occ. eigenvalues --   -0.48610  -0.46373  -0.45963  -0.44971  -0.43433
 Alpha  occ. eigenvalues --   -0.42931  -0.41083
 Alpha virt. eigenvalues --    0.12194   0.14117   0.15061   0.15794   0.17490
 Alpha virt. eigenvalues --    0.18010   0.18662   0.19834   0.20607   0.22130
 Alpha virt. eigenvalues --    0.22198   0.23404   0.24019   0.25403   0.26432

 Mulliken atomic charges:
              1
     1  C    0.111251
     2  O   -0.423137
     3  C    0.082956
     4  C    0.086357
     5  C    0.117667
     6  C    0.105549
     7  C    0.071051
     8  O   -0.407955
     9  O   -0.452410
    10  O   -0.447163
    11  O   -0.441081
    12  C   -0.203687
    13  C   -0.293642
    14  H    0.079311
    15  H    0.139487
    16  H    0.077236
    17  H    0.110692
    18  H    0.116739
    19  H    0.075777
    20  H    0.133727
    21  H    0.081088
    22  H    0.224711
    23  H    0.240338
    24  H    0.242935
    25  H    0.099623
    26  H    0.097573
    27  H    0.092003
    28  H    0.219945
    29  H    0.063060
 Sum of Mulliken atomic charges =   0.00000

 Dipole moment (field-independent basis, Debye):
    X=             -1.3632    Y=             -1.1502    Z=              2.6898  Tot=              3.2274
 Quadrupole moment (field-independent basis, Debye-Ang):
   XX=            -78.9469   YY=            -77.6540   ZZ=            -75.7002
   XY=              4.5469   XZ=             -0.8471   YZ=              0.2612

 Normal termination of Gaussian 09 at Fri Mar  4 04:31:09 2016.
