 Gaussian 09, Revision A.01,
 Gaussian 09:  EM64L-G09RevA.01  8-May-2009

 -------------
 # mp2/cc-pVTZ
 -------------

 -----------------------------
 C_Et_glycoside_a_single_point
 -----------------------------
 Symbolic Z-matrix:
 Charge =  0 Multiplicity = 1

                         Standard orientation:
 ---------------------------------------------------------------------
 Center     Atomic      Atomic             Coordinates (Angstroms)
 Number     Number       Type             X           Y           Z
 ---------------------------------------------------------------------
      1          6           0        1.111926   -0.865180   -0.506840
      2          8           0       -0.251498   -1.328338   -0.547878
      3          6           0       -1.150562   -0.739020    0.387150
      4          6           0       -1.216068    0.786470    0.185519
      5          6           0        0.188901    1.383127    0.193703
      6          6           0        1.102589    0.650741   -0.786391
      7          6           0       -2.503899   -1.417796    0.218428
      8          8           0       -3.058326   -1.058173   -1.043392
      9          8           0       -2.038763    1.435783    1.165014
     10          8           0        0.183960    2.759590   -0.185359
     11          8           0        2.430452    1.161231   -0.726186
     12          6           0        1.851102   -1.325923    0.766167
     13          6           0        3.359882   -1.526144    0.563495
     14          1           0       -0.815688   -0.948489    1.420681
     15          1           0       -1.698764    0.993933   -0.772674
     16          1           0        0.611469    1.292309    1.209422
     17          1           0        0.689991    0.797730   -1.795342
     18          1           0        1.574190   -1.363461   -1.365110
     19          1           0        1.396729   -2.280929    1.058822
     20          1           0        1.688407   -0.629184    1.597001
     21          1           0       -2.349762   -2.503145    0.288263
     22          1           0       -1.694202    1.235468    2.047921
     23          1           0       -0.526458    3.201196    0.302138
     24          1           0        2.371535    2.121122   -0.838580
     25          1           0        3.825563   -1.891321    1.485185
     26          1           0        3.552301   -2.267255   -0.221376
     27          1           0        3.847131   -0.592592    0.274658
     28          1           0       -3.903868   -1.508244   -1.156169
     29          1           0       -3.158402   -1.095530    1.040180
 ---------------------------------------------------------------------

 SCF Done:  E(RHF) =  -686.795252610     A.U. after   12 cycles
 E2 =    -0.2561686764D+01 EUMP2 =    -0.68935693937409D+03

 The electronic state is 1-A.
 Alpha  occ. eigenvalues --  -20.57339 -20.56264 -20.55753 -20.55609 -20.55487
 Alpha  occ. eigenvalues --  -11.29193 -11.28602 -11.28535 -11.28317 -11.28203
 Alpha  occ. eigenvalues --  -11.28171 -11.22382 -11.20840  -1.39219  -1.37370
 Alpha  occ. eigenvalues --   -1.36685  -1.35338  -1.34638  -1.06855  -1.05410
 Alpha  occ. eigenvalues --   -1.00992  -0.93324  -0.88077  -0.84216  -0.82508
 Alpha  occ. eigenvalues --   -0.76856  -0.72433  -0.70960  -0.70111  -0.67321
 Alpha  occ. eigenvalues --   -0.65654  -0.65037  -0.62896  -0.61641  -0.61447
 Alpha  occ. eigenvalues --   -0.59598  -0.58600  -0.56317  -0.55216  -0.54781
 Alpha  occ. eigenvalues --   -0.54227  -0.52853  -0.51151  -0.50713  -0.50112
 Alpha  occ. eigenvalues --   -0.48517  -0.46514  -0.45517  -0.44958  -0.43414
 Alpha  occ. eigenvalues --   -0.43039  -0.41010
 Alpha virt. eigenvalues --    0.12338   0.14398   0.15219   0.15622   0.17560
 Alpha virt. eigenvalues --    0.18041   0.18643   0.19580   0.20485   0.22091
 Alpha virt. eigenvalues --    0.22780   0.23602   0.24150   0.25624   0.26583

 Mulliken atomic charges:
              1
     1  C    0.104246
     2  O   -0.416932
     3  C    0.092029
     4  C    0.083793
     5  C    0.114702
     6  C    0.106594
     7  C    0.072019
     8  O   -0.407491
     9  O   -0.452206
    10  O   -0.448337
    11  O   -0.438275
    12  C   -0.201376
    13  C   -0.294706
    14  H    0.076703
    15  H    0.139537
    16  H    0.076951
    17  H    0.109761
    18  H    0.121605
    19  H    0.111732
    20  H    0.084174
    21  H    0.080990
    22  H    0.224549
    23  H    0.240333
    24  H    0.241605
    25  H    0.094688
    26  H    0.084749
    27  H    0.116625
    28  H    0.219760
    29  H    0.062179
 Sum of Mulliken atomic charges =   0.00000

 Dipole moment (field-independent basis, Debye):
    X=             -1.4371    Y=             -0.8504    Z=              2.8131  Tot=              3.2714
 Quadrupole moment (field-independent basis, Debye-Ang):
   XX=            -78.6485   YY=            -77.4640   ZZ=            -75.7232
   XY=              5.0194   XZ=             -1.5156   YZ=              0.1502

 Normal termination of Gaussian 09 at Fri Mar  4 03:10:15 2016.
