 Gaussian 09, Revision A.01,
 Gaussian 09:  EM64L-G09RevA.01  8-May-2009

 -------------------
 # b3lyp/6-31+g(d,p)
 -------------------

 --------------------------------------
 cis_2_6_DiMe_cyclOMe_anti_single_point
 --------------------------------------
 Symbolic Z-matrix:
 Charge =  0 Multiplicity = 1

                         Standard orientation:
 ---------------------------------------------------------------------
 Center     Atomic      Atomic             Coordinates (Angstroms)
 Number     Number       Type             X           Y           Z
 ---------------------------------------------------------------------
      1          6           0        0.450349    0.000120   -0.445213
      2          6           0       -0.166926    1.287215    0.147196
      3          6           0       -1.698376    1.262593   -0.024805
      4          6           0       -2.332912   -0.000601    0.569664
      5          6           0       -1.697697   -1.263457   -0.024791
      6          6           0       -0.166232   -1.287277    0.147198
      7          6           0        0.442905    2.550503   -0.474720
      8          6           0        0.444259   -2.550227   -0.474757
      9          8           0        1.887329    0.000493   -0.401891
     10          6           0        2.503046    0.000570    0.875584
     11          1           0       -2.129455    2.161633    0.433866
     12          1           0       -3.415604   -0.000885    0.392806
     13          1           0       -2.194484   -0.000550    1.660597
     14          1           0       -1.936923   -1.319603   -1.097733
     15          1           0       -2.128305   -2.162724    0.433876
     16          1           0        0.036934    1.298470    1.228976
     17          1           0        0.037662   -1.298435    1.228974
     18          1           0        0.246059    0.000047   -1.526050
     19          1           0        3.580358    0.001065    0.691724
     20          1           0        2.251375    0.892590    1.465883
     21          1           0        2.252125   -0.891844    1.465610
     22          1           0        0.006158    3.451598   -0.029042
     23          1           0        1.526605    2.588137   -0.335639
     24          1           0        0.249323    2.583545   -1.554141
     25          1           0       -1.937617    1.318591   -1.097749
     26          1           0        0.250901   -2.583218   -1.554219
     27          1           0        0.007811   -3.451564   -0.029274
     28          1           0        1.527951   -2.587432   -0.335479
 ---------------------------------------------------------------------

 SCF Done:  E(RB3LYP) =  -429.059511429     A.U. after   12 cycles

 The electronic state is 1-A.
 Alpha  occ. eigenvalues --  -19.14995 -10.23179 -10.22722 -10.18985 -10.18985
 Alpha  occ. eigenvalues --  -10.18461 -10.18431 -10.18423 -10.17290 -10.17290
 Alpha  occ. eigenvalues --   -1.02607  -0.83699  -0.77800  -0.75251  -0.70392
 Alpha  occ. eigenvalues --   -0.67434  -0.65705  -0.59123  -0.57825  -0.55851
 Alpha  occ. eigenvalues --   -0.49426  -0.46636  -0.46447  -0.45568  -0.43969
 Alpha  occ. eigenvalues --   -0.42251  -0.40978  -0.40539  -0.39127  -0.38436
 Alpha  occ. eigenvalues --   -0.37936  -0.36581  -0.35034  -0.34513  -0.33059
 Alpha  occ. eigenvalues --   -0.33053  -0.31825  -0.31288  -0.28704  -0.25103
 Alpha virt. eigenvalues --    0.00171   0.01299   0.01446   0.01596   0.03498
 Alpha virt. eigenvalues --    0.04243   0.04680   0.05009   0.05089   0.06710
 Alpha virt. eigenvalues --    0.06782   0.06794   0.07487   0.08014   0.08665

 Mulliken atomic charges:
              1
     1  C   -0.814511
     2  C    0.570525
     3  C   -0.383388
     4  C   -0.290373
     5  C   -0.383395
     6  C    0.570451
     7  C   -0.627154
     8  C   -0.627119
     9  O   -0.305065
    10  C   -0.158710
    11  H    0.133251
    12  H    0.134339
    13  H    0.135859
    14  H    0.137870
    15  H    0.133250
    16  H    0.120645
    17  H    0.120653
    18  H    0.124852
    19  H    0.143225
    20  H    0.127164
    21  H    0.127166
    22  H    0.136775
    23  H    0.155681
    24  H    0.143847
    25  H    0.137869
    26  H    0.143852
    27  H    0.136771
    28  H    0.155670
 Sum of Mulliken atomic charges =   0.00000

 Dipole moment (field-independent basis, Debye):
    X=             -0.8726    Y=             -0.0003    Z=              1.2484  Tot=              1.5231
 Quadrupole moment (field-independent basis, Debye-Ang):
   XX=            -66.5515   YY=            -66.6221   ZZ=            -65.5522
   XY=             -0.0001   XZ=              3.5765   YZ=              0.0010

 Normal termination of Gaussian 09 at Sun Feb 25 23:19:53 2018.
