 Gaussian 09, Revision A.01,
 Gaussian 09:  EM64L-G09RevA.01  8-May-2009

 -------------
 # mp2/cc-pVTZ
 -------------

 --------------------------------------
 cis_2_6_DiMe_cyclOMe_anti_single_point
 --------------------------------------
 Symbolic Z-matrix:
 Charge =  0 Multiplicity = 1

                         Standard orientation:
 ---------------------------------------------------------------------
 Center     Atomic      Atomic             Coordinates (Angstroms)
 Number     Number       Type             X           Y           Z
 ---------------------------------------------------------------------
      1          6           0        0.450349    0.000120   -0.445213
      2          6           0       -0.166926    1.287215    0.147196
      3          6           0       -1.698376    1.262593   -0.024805
      4          6           0       -2.332912   -0.000601    0.569664
      5          6           0       -1.697697   -1.263457   -0.024791
      6          6           0       -0.166232   -1.287277    0.147198
      7          6           0        0.442905    2.550503   -0.474720
      8          6           0        0.444259   -2.550227   -0.474757
      9          8           0        1.887329    0.000493   -0.401891
     10          6           0        2.503046    0.000570    0.875584
     11          1           0       -2.129455    2.161633    0.433866
     12          1           0       -3.415604   -0.000885    0.392806
     13          1           0       -2.194484   -0.000550    1.660597
     14          1           0       -1.936923   -1.319603   -1.097733
     15          1           0       -2.128305   -2.162724    0.433876
     16          1           0        0.036934    1.298470    1.228976
     17          1           0        0.037662   -1.298435    1.228974
     18          1           0        0.246059    0.000047   -1.526050
     19          1           0        3.580358    0.001065    0.691724
     20          1           0        2.251375    0.892590    1.465883
     21          1           0        2.252125   -0.891844    1.465610
     22          1           0        0.006158    3.451598   -0.029042
     23          1           0        1.526605    2.588137   -0.335639
     24          1           0        0.249323    2.583545   -1.554141
     25          1           0       -1.937617    1.318591   -1.097749
     26          1           0        0.250901   -2.583218   -1.554219
     27          1           0        0.007811   -3.451564   -0.029274
     28          1           0        1.527951   -2.587432   -0.335479
 ---------------------------------------------------------------------

 SCF Done:  E(RHF) =  -426.296435288     A.U. after   12 cycles
 E2 =    -0.1806864280D+01 EUMP2 =    -0.42810329956867D+03

 The electronic state is 1-A.
 Alpha  occ. eigenvalues --  -20.54452 -11.27119 -11.26551 -11.22408 -11.22406
 Alpha  occ. eigenvalues --  -11.21927 -11.21878 -11.21840 -11.20769 -11.20769
 Alpha  occ. eigenvalues --   -1.35709  -1.11843  -1.04537  -1.01121  -0.94425
 Alpha  occ. eigenvalues --   -0.91371  -0.89065  -0.80466  -0.78830  -0.75352
 Alpha  occ. eigenvalues --   -0.66150  -0.64128  -0.63145  -0.62083  -0.59717
 Alpha  occ. eigenvalues --   -0.58037  -0.56206  -0.55780  -0.54082  -0.53095
 Alpha  occ. eigenvalues --   -0.52322  -0.50716  -0.49553  -0.48747  -0.46747
 Alpha  occ. eigenvalues --   -0.46515  -0.44938  -0.44799  -0.42019  -0.39553
 Alpha virt. eigenvalues --    0.13755   0.14851   0.15423   0.15734   0.18275
 Alpha virt. eigenvalues --    0.19710   0.19971   0.20541   0.21267   0.22557
 Alpha virt. eigenvalues --    0.22670   0.23414   0.23845   0.24456   0.25482

 Mulliken atomic charges:
              1
     1  C    0.156445
     2  C   -0.117308
     3  C   -0.191933
     4  C   -0.205373
     5  C   -0.191937
     6  C   -0.117313
     7  C   -0.304941
     8  C   -0.304931
     9  O   -0.404752
    10  C   -0.113196
    11  H    0.109006
    12  H    0.110663
    13  H    0.088388
    14  H    0.090371
    15  H    0.109007
    16  H    0.103447
    17  H    0.103448
    18  H    0.110818
    19  H    0.125865
    20  H    0.075702
    21  H    0.075704
    22  H    0.095808
    23  H    0.116459
    24  H    0.088959
    25  H    0.090372
    26  H    0.088960
    27  H    0.095806
    28  H    0.116454
 Sum of Mulliken atomic charges =   0.00000

 Dipole moment (field-independent basis, Debye):
    X=             -0.8592    Y=             -0.0003    Z=              1.2206  Tot=              1.4927
 Quadrupole moment (field-independent basis, Debye-Ang):
   XX=            -66.3187   YY=            -66.3556   ZZ=            -64.8610
   XY=             -0.0001   XZ=              3.5249   YZ=              0.0010

 Normal termination of Gaussian 09 at Fri Mar  4 05:24:37 2016.
