 Gaussian 09, Revision A.01,
 Gaussian 09:  EM64L-G09RevA.01  8-May-2009

 -------------------
 # b3lyp/6-31+g(d,p)
 -------------------

 -------------------------------------
 cis_2_6_DiMe_cyclOMe_ecl_single_point
 -------------------------------------
 Symbolic Z-matrix:
 Charge =  0 Multiplicity = 1

                         Standard orientation:
 ---------------------------------------------------------------------
 Center     Atomic      Atomic             Coordinates (Angstroms)
 Number     Number       Type             X           Y           Z
 ---------------------------------------------------------------------
      1          6           0        0.471380    0.000125    0.076626
      2          6           0       -0.290493   -1.281271   -0.318777
      3          6           0       -1.719067   -1.262974    0.258373
      4          6           0       -2.492898   -0.000443   -0.139315
      5          6           0       -1.719552    1.262397    0.258340
      6          6           0       -0.290976    1.281240   -0.318777
      7          6           0        0.462592   -2.552806    0.092427
      8          6           0        0.461662    2.553018    0.092495
      9          8           0        1.756373    0.000456   -0.566459
     10          6           0        2.878718    0.000253    0.297799
     11          1           0       -2.255210   -2.161948   -0.071792
     12          1           0       -3.486035   -0.000619    0.326887
     13          1           0       -2.657275   -0.000511   -1.226317
     14          1           0       -1.662878    1.323693    1.356213
     15          1           0       -2.256017    2.161165   -0.071857
     16          1           0       -0.364220   -1.269785   -1.416892
     17          1           0       -0.364656    1.269748   -1.416897
     18          1           0        0.616932    0.000175    1.171063
     19          1           0        3.767497    0.000384   -0.338857
     20          1           0        2.903753    0.893286    0.939444
     21          1           0        2.903763   -0.893023    0.939095
     22          1           0       -0.080698   -3.446891   -0.233983
     23          1           0        1.460070   -2.583774   -0.354377
     24          1           0        0.570943   -2.612942    1.183310
     25          1           0       -1.662354   -1.324211    1.356246
     26          1           0        0.569860    2.613187    1.183392
     27          1           0       -0.081847    3.446936   -0.233997
     28          1           0        1.459199    2.584251   -0.354161
 ---------------------------------------------------------------------

 SCF Done:  E(RB3LYP) =  -429.061558207     A.U. after   12 cycles

 The electronic state is 1-A.
 Alpha  occ. eigenvalues --  -19.14981 -10.23242 -10.22902 -10.18675 -10.18674
 Alpha  occ. eigenvalues --  -10.18240 -10.18221 -10.18209 -10.17307 -10.17307
 Alpha  occ. eigenvalues --   -1.02788  -0.83587  -0.77603  -0.75275  -0.70098
 Alpha  occ. eigenvalues --   -0.67346  -0.65241  -0.59286  -0.57607  -0.56002
 Alpha  occ. eigenvalues --   -0.49213  -0.46909  -0.46651  -0.44848  -0.43992
 Alpha  occ. eigenvalues --   -0.42689  -0.41106  -0.40430  -0.39236  -0.38544
 Alpha  occ. eigenvalues --   -0.37690  -0.36395  -0.34490  -0.34373  -0.32694
 Alpha  occ. eigenvalues --   -0.32412  -0.31178  -0.31027  -0.30245  -0.24871
 Alpha virt. eigenvalues --    0.00505   0.01132   0.01580   0.02098   0.03199
 Alpha virt. eigenvalues --    0.03955   0.04639   0.04978   0.05330   0.06003
 Alpha virt. eigenvalues --    0.06773   0.07218   0.07365   0.08319   0.08693

 Mulliken atomic charges:
              1
     1  C   -0.510030
     2  C    0.459474
     3  C   -0.335386
     4  C   -0.305872
     5  C   -0.335342
     6  C    0.459455
     7  C   -0.702162
     8  C   -0.702193
     9  O   -0.328162
    10  C   -0.154801
    11  H    0.133116
    12  H    0.133563
    13  H    0.138176
    14  H    0.134100
    15  H    0.133117
    16  H    0.131549
    17  H    0.131548
    18  H    0.106488
    19  H    0.141651
    20  H    0.128572
    21  H    0.128573
    22  H    0.138963
    23  H    0.161501
    24  H    0.139764
    25  H    0.134103
    26  H    0.139757
    27  H    0.138960
    28  H    0.161517
 Sum of Mulliken atomic charges =   0.00000

 Dipole moment (field-independent basis, Debye):
    X=             -0.2671    Y=             -0.0006    Z=              1.0503  Tot=              1.0837
 Quadrupole moment (field-independent basis, Debye-Ang):
   XX=            -63.7557   YY=            -66.6222   ZZ=            -66.7868
   XY=             -0.0006   XZ=              2.6795   YZ=              0.0006

 Normal termination of Gaussian 09 at Sun Feb 25 23:23:41 2018.
