 Gaussian 09, Revision A.01,
 Gaussian 09:  EM64L-G09RevA.01  8-May-2009

 -------------
 # mp2/cc-pVTZ
 -------------

 -------------------------------------
 cis_2_6_DiMe_cyclOMe_ecl_single_point
 -------------------------------------
 Symbolic Z-matrix:
 Charge =  0 Multiplicity = 1

                         Standard orientation:
 ---------------------------------------------------------------------
 Center     Atomic      Atomic             Coordinates (Angstroms)
 Number     Number       Type             X           Y           Z
 ---------------------------------------------------------------------
      1          6           0        0.471380    0.000125    0.076626
      2          6           0       -0.290493   -1.281271   -0.318777
      3          6           0       -1.719067   -1.262974    0.258373
      4          6           0       -2.492898   -0.000443   -0.139315
      5          6           0       -1.719552    1.262397    0.258340
      6          6           0       -0.290976    1.281240   -0.318777
      7          6           0        0.462592   -2.552806    0.092427
      8          6           0        0.461662    2.553018    0.092495
      9          8           0        1.756373    0.000456   -0.566459
     10          6           0        2.878718    0.000253    0.297799
     11          1           0       -2.255210   -2.161948   -0.071792
     12          1           0       -3.486035   -0.000619    0.326887
     13          1           0       -2.657275   -0.000511   -1.226317
     14          1           0       -1.662878    1.323693    1.356213
     15          1           0       -2.256017    2.161165   -0.071857
     16          1           0       -0.364220   -1.269785   -1.416892
     17          1           0       -0.364656    1.269748   -1.416897
     18          1           0        0.616932    0.000175    1.171063
     19          1           0        3.767497    0.000384   -0.338857
     20          1           0        2.903753    0.893286    0.939444
     21          1           0        2.903763   -0.893023    0.939095
     22          1           0       -0.080698   -3.446891   -0.233983
     23          1           0        1.460070   -2.583774   -0.354377
     24          1           0        0.570943   -2.612942    1.183310
     25          1           0       -1.662354   -1.324211    1.356246
     26          1           0        0.569860    2.613187    1.183392
     27          1           0       -0.081847    3.446936   -0.233997
     28          1           0        1.459199    2.584251   -0.354161
 ---------------------------------------------------------------------

 SCF Done:  E(RHF) =  -426.299562111     A.U. after   12 cycles
 E2 =    -0.1804903276D+01 EUMP2 =    -0.42810446538783D+03

 The electronic state is 1-A.
 Alpha  occ. eigenvalues --  -20.54404 -11.27133 -11.26753 -11.22086 -11.22085
 Alpha  occ. eigenvalues --  -11.21702 -11.21661 -11.21617 -11.20776 -11.20776
 Alpha  occ. eigenvalues --   -1.35906  -1.11714  -1.04330  -1.01150  -0.94138
 Alpha  occ. eigenvalues --   -0.91278  -0.88479  -0.80742  -0.78622  -0.75808
 Alpha  occ. eigenvalues --   -0.65462  -0.64489  -0.63345  -0.61234  -0.59774
 Alpha  occ. eigenvalues --   -0.58545  -0.56384  -0.55677  -0.54183  -0.53199
 Alpha  occ. eigenvalues --   -0.51923  -0.50510  -0.48741  -0.48667  -0.46495
 Alpha  occ. eigenvalues --   -0.46116  -0.44819  -0.44706  -0.42807  -0.39348
 Alpha virt. eigenvalues --    0.14093   0.14758   0.15689   0.15820   0.18304
 Alpha virt. eigenvalues --    0.19133   0.20091   0.20693   0.21298   0.22389
 Alpha virt. eigenvalues --    0.23408   0.23526   0.24010   0.24461   0.24519

 Mulliken atomic charges:
              1
     1  C    0.167056
     2  C   -0.055949
     3  C   -0.200537
     4  C   -0.202589
     5  C   -0.200532
     6  C   -0.055971
     7  C   -0.338517
     8  C   -0.338495
     9  O   -0.412624
    10  C   -0.096645
    11  H    0.108248
    12  H    0.108978
    13  H    0.089638
    14  H    0.087032
    15  H    0.108248
    16  H    0.099710
    17  H    0.099712
    18  H    0.073616
    19  H    0.106634
    20  H    0.076076
    21  H    0.076078
    22  H    0.104980
    23  H    0.117658
    24  H    0.084267
    25  H    0.087035
    26  H    0.084255
    27  H    0.104974
    28  H    0.117662
 Sum of Mulliken atomic charges =   0.00000

 Dipole moment (field-independent basis, Debye):
    X=             -0.2435    Y=             -0.0006    Z=              1.0596  Tot=              1.0872
 Quadrupole moment (field-independent basis, Debye-Ang):
   XX=            -63.5805   YY=            -66.4248   ZZ=            -65.9904
   XY=             -0.0006   XZ=              2.6388   YZ=              0.0006

 Normal termination of Gaussian 09 at Fri Mar  4 06:17:03 2016.
