 Gaussian 09, Revision A.01,
 Gaussian 09:  EM64L-G09RevA.01  8-May-2009

 -------------
 # mp2/cc-pVTZ
 -------------

 ----------------------
 ethanol_g_single_point
 ----------------------
 Symbolic Z-matrix:
 Charge =  0 Multiplicity = 1

                         Standard orientation:
 ---------------------------------------------------------------------
 Center     Atomic      Atomic             Coordinates (Angstroms)
 Number     Number       Type             X           Y           Z
 ---------------------------------------------------------------------
      1          6           0       -1.218462   -0.241616   -0.021457
      2          6           0        0.079625    0.556853    0.047252
      3          8           0        1.244578   -0.257503   -0.108764
      4          1           0        1.270614   -0.903569    0.609119
      5          1           0        0.127881    1.279495   -0.772625
      6          1           0        0.131364    1.123756    0.989143
      7          1           0       -1.284201   -0.964116    0.801645
      8          1           0       -1.283671   -0.792087   -0.965259
      9          1           0       -2.085591    0.425123    0.053320
 ---------------------------------------------------------------------

 SCF Done:  E(RHF) =  -154.141486291     A.U. after   11 cycles
 E2 =    -0.6023065678D+00 EUMP2 =    -0.15474379285886D+03

 The electronic state is 1-A.
 Alpha  occ. eigenvalues --  -20.54967 -11.27553 -11.22027  -1.34941  -1.00929
 Alpha  occ. eigenvalues --   -0.84524  -0.68122  -0.61824  -0.60327  -0.54263
 Alpha  occ. eigenvalues --   -0.52319  -0.47987  -0.44143
 Alpha virt. eigenvalues --    0.13616   0.17335   0.18367   0.20625   0.22301
 Alpha virt. eigenvalues --    0.23842   0.30840   0.33758   0.37879   0.39887
 Alpha virt. eigenvalues --    0.45761   0.46966   0.53605   0.57256   0.59924

 Mulliken atomic charges:
              1
     1  C   -0.273593
     2  C    0.073812
     3  O   -0.422587
     4  H    0.219638
     5  H    0.085792
     6  H    0.057539
     7  H    0.074390
     8  H    0.099708
     9  H    0.085301
 Sum of Mulliken atomic charges =   0.00000

 Dipole moment (field-independent basis, Debye):
    X=             -1.2891    Y=             -0.1416    Z=              1.2189  Tot=              1.7797
 Quadrupole moment (field-independent basis, Debye-Ang):
   XX=            -22.4455   YY=            -18.5763   ZZ=            -19.1154
   XY=             -1.0165   XZ=              1.8634   YZ=             -1.4673

 Normal termination of Gaussian 09 at Thu Mar  3 21:50:11 2016.
