 Gaussian 09, Revision A.01,
 Gaussian 09:  EM64L-G09RevA.01  8-May-2009

 -------------
 # mp2/cc-pVTZ
 -------------

 ----------------------
 ethanol_a_single_point
 ----------------------
 Symbolic Z-matrix:
 Charge =  0 Multiplicity = 1

                         Standard orientation:
 ---------------------------------------------------------------------
 Center     Atomic      Atomic             Coordinates (Angstroms)
 Number     Number       Type             X           Y           Z
 ---------------------------------------------------------------------
      1          6           0       -1.225111   -0.223749    0.000010
      2          6           0        0.081932    0.550403   -0.000010
      3          8           0        1.155681   -0.396403   -0.000021
      4          1           0        1.997019    0.076892    0.000158
      5          1           0        0.139929    1.195794   -0.889468
      6          1           0        0.139937    1.195810    0.889436
      7          1           0       -1.293329   -0.861281    0.887023
      8          1           0       -1.293336   -0.861315   -0.886980
      9          1           0       -2.076597    0.465404    0.000000
 ---------------------------------------------------------------------

 SCF Done:  E(RHF) =  -154.141866990     A.U. after   11 cycles
 E2 =    -0.6020282556D+00 EUMP2 =    -0.15474389524611D+03

 The electronic state is 1-A.
 Alpha  occ. eigenvalues --  -20.54929 -11.27557 -11.21352  -1.34874  -1.00889
 Alpha  occ. eigenvalues --   -0.83174  -0.69271  -0.64084  -0.56672  -0.53076
 Alpha  occ. eigenvalues --   -0.52303  -0.48580  -0.44009
 Alpha virt. eigenvalues --    0.13850   0.16814   0.19796   0.20038   0.22219
 Alpha virt. eigenvalues --    0.24633   0.31852   0.32799   0.38237   0.40250
 Alpha virt. eigenvalues --    0.45296   0.47962   0.54965   0.55906   0.58952

 Mulliken atomic charges:
              1
     1  C   -0.264520
     2  C    0.087041
     3  O   -0.416322
     4  H    0.217890
     5  H    0.052780
     6  H    0.052779
     7  H    0.095749
     8  H    0.095752
     9  H    0.078851
 Sum of Mulliken atomic charges =   0.00000

 Dipole moment (field-independent basis, Debye):
    X=              0.1402    Y=              1.6778    Z=              0.0003  Tot=              1.6836
 Quadrupole moment (field-independent basis, Debye-Ang):
   XX=            -17.1166   YY=            -20.6347   ZZ=            -20.0884
   XY=              2.0084   XZ=              0.0007   YZ=              0.0001

 Normal termination of Gaussian 09 at Thu Mar  3 21:49:40 2016.
