 Gaussian 09, Revision A.01,
 Gaussian 09:  EM64L-G09RevA.01  8-May-2009

 -------------
 # mp2/cc-pVTZ
 -------------

 ---------------------------------
 ethyl_methyl_ether_a_single_point
 ---------------------------------
 Symbolic Z-matrix:
 Charge =  0 Multiplicity = 1

                         Standard orientation:
 ---------------------------------------------------------------------
 Center     Atomic      Atomic             Coordinates (Angstroms)
 Number     Number       Type             X           Y           Z
 ---------------------------------------------------------------------
      1          6           0        1.859353   -0.169098    0.000049
      2          6           0        0.497794    0.505273   -0.000047
      3          8           0       -0.508986   -0.497582   -0.000085
      4          6           0       -1.820430    0.032859    0.000053
      5          1           0        2.655085    0.583602    0.000044
      6          1           0        1.977323   -0.798977    0.887113
      7          1           0        0.383080    1.148770    0.888804
      8          1           0       -2.511097   -0.813413    0.000047
      9          1           0       -2.006610    0.648338    0.894309
     10          1           0       -2.006748    0.648463   -0.894089
     11          1           0        1.977384   -0.799066   -0.886946
     12          1           0        0.383174    1.148745   -0.888930
 ---------------------------------------------------------------------

 SCF Done:  E(RHF) =  -193.178591870     A.U. after   11 cycles
 E2 =    -0.7723768106D+00 EUMP2 =    -0.19395096868014D+03

 The electronic state is 1-A.
 Alpha  occ. eigenvalues --  -20.54975 -11.27366 -11.26848 -11.21385  -1.36568
 Alpha  occ. eigenvalues --   -1.02100  -0.91143  -0.82750  -0.66441  -0.64868
 Alpha  occ. eigenvalues --   -0.62177  -0.57978  -0.53375  -0.50516  -0.50108
 Alpha  occ. eigenvalues --   -0.47227  -0.41886
 Alpha virt. eigenvalues --    0.14235   0.16036   0.19603   0.19661   0.21867
 Alpha virt. eigenvalues --    0.23107   0.23827   0.25598   0.25992   0.33388
 Alpha virt. eigenvalues --    0.34682   0.37556   0.39381   0.41157   0.45051

 Mulliken atomic charges:
              1
     1  C   -0.262710
     2  C    0.085113
     3  O   -0.364376
     4  C   -0.053923
     5  H    0.080020
     6  H    0.095750
     7  H    0.052122
     8  H    0.105154
     9  H    0.057485
    10  H    0.057485
    11  H    0.095751
    12  H    0.052129
 Sum of Mulliken atomic charges =   0.00000

 Dipole moment (field-independent basis, Debye):
    X=             -0.2171    Y=              1.3149    Z=              0.0002  Tot=              1.3327
 Quadrupole moment (field-independent basis, Debye-Ang):
   XX=            -23.9790   YY=            -27.4782   ZZ=            -26.5694
   XY=             -0.0322   XZ=             -0.0002   YZ=             -0.0002

 Normal termination of Gaussian 09 at Thu Mar  3 21:51:06 2016.
