 Gaussian 09, Revision A.01,
 Gaussian 09:  EM64L-G09RevA.01  8-May-2009

 -------------
 # mp2/cc-pVTZ
 -------------

 ---------------------------------
 ethyl_methyl_ether_g_single_point
 ---------------------------------
 Symbolic Z-matrix:
 Charge =  0 Multiplicity = 1

                         Standard orientation:
 ---------------------------------------------------------------------
 Center     Atomic      Atomic             Coordinates (Angstroms)
 Number     Number       Type             X           Y           Z
 ---------------------------------------------------------------------
      1          6           0       -1.556985    0.517569   -0.088772
      2          6           0       -0.598978   -0.621482    0.258969
      3          8           0        0.659228   -0.538618   -0.403920
      4          6           0        1.533973    0.445934    0.117262
      5          1           0       -2.526790    0.349104    0.393540
      6          1           0       -1.183972    1.489254    0.250637
      7          1           0       -0.439969   -0.671299    1.349154
      8          1           0        2.485223    0.333872   -0.408184
      9          1           0        1.161629    1.467359   -0.045280
     10          1           0        1.702531    0.299086    1.195892
     11          1           0       -1.715233    0.567852   -1.170829
     12          1           0       -1.025306   -1.578413   -0.058329
 ---------------------------------------------------------------------

 SCF Done:  E(RHF) =  -193.175638152     A.U. after   11 cycles
 E2 =    -0.7731014083D+00 EUMP2 =    -0.19394873956065D+03

 The electronic state is 1-A.
 Alpha  occ. eigenvalues --  -20.54836 -11.27360 -11.26767 -11.21705  -1.36227
 Alpha  occ. eigenvalues --   -1.01731  -0.92473  -0.81990  -0.65733  -0.65457
 Alpha  occ. eigenvalues --   -0.62151  -0.56631  -0.54882  -0.52396  -0.49909
 Alpha  occ. eigenvalues --   -0.46204  -0.41652
 Alpha virt. eigenvalues --    0.14021   0.16973   0.18086   0.19933   0.22098
 Alpha virt. eigenvalues --    0.22862   0.23828   0.25859   0.26303   0.32785
 Alpha virt. eigenvalues --    0.34997   0.38011   0.39854   0.40590   0.43708

 Mulliken atomic charges:
              1
     1  C   -0.280614
     2  C    0.052755
     3  O   -0.370215
     4  C   -0.056507
     5  H    0.092703
     6  H    0.084219
     7  H    0.056895
     8  H    0.108539
     9  H    0.059484
    10  H    0.056953
    11  H    0.098285
    12  H    0.097502
 Sum of Mulliken atomic charges =   0.00000

 Dipole moment (field-independent basis, Debye):
    X=             -0.4453    Y=              0.8698    Z=              1.0517  Tot=              1.4356
 Quadrupole moment (field-independent basis, Debye-Ang):
   XX=            -24.9291   YY=            -27.0115   ZZ=            -27.1850
   XY=              1.9512   XZ=              0.5881   YZ=             -0.6468

 Normal termination of Gaussian 09 at Thu Mar  3 21:52:03 2016.
