 Gaussian 09, Revision A.01,
 Gaussian 09:  EM64L-G09RevA.01  8-May-2009

 -------------------
 # b3lyp/6-31+g(d,p)
 -------------------

 -------------------------------------------
 Formaldehyde_dimethylacetal_ag_single_point
 -------------------------------------------
 Symbolic Z-matrix:
 Charge =  0 Multiplicity = 1

                         Standard orientation:
 ---------------------------------------------------------------------
 Center     Atomic      Atomic             Coordinates (Angstroms)
 Number     Number       Type             X           Y           Z
 ---------------------------------------------------------------------
      1          6           0       -1.938127   -0.616172    0.133905
      2          8           0       -1.269386    0.575771   -0.275099
      3          6           0        0.025954    0.696448    0.203876
      4          8           0        0.854388   -0.294564   -0.380666
      5          6           0        2.185501   -0.252840    0.103073
      6          1           0       -2.966562   -0.530266   -0.221189
      7          1           0       -1.469466   -1.504104   -0.302201
      8          1           0       -1.939157   -0.705902    1.230395
      9          1           0        0.370982    1.701205   -0.078003
     10          1           0        0.055302    0.585822    1.306547
     11          1           0        2.732980   -1.051708   -0.400454
     12          1           0        2.668735    0.709666   -0.124901
     13          1           0        2.227201   -0.418987    1.190804
 ---------------------------------------------------------------------

 SCF Done:  E(RB3LYP) =  -269.571626442     A.U. after   11 cycles

 The electronic state is 1-A.
 Alpha  occ. eigenvalues --  -19.16833 -19.16447 -10.28653 -10.23927 -10.23139
 Alpha  occ. eigenvalues --   -1.07610  -1.01857  -0.73905  -0.68935  -0.62434
 Alpha  occ. eigenvalues --   -0.51033  -0.50878  -0.50502  -0.44624  -0.43120
 Alpha  occ. eigenvalues --   -0.42776  -0.39134  -0.34242  -0.33350  -0.28107
 Alpha  occ. eigenvalues --   -0.26914
 Alpha virt. eigenvalues --    0.00709   0.02050   0.03003   0.03760   0.04511
 Alpha virt. eigenvalues --    0.05016   0.06726   0.07424   0.08123   0.08776
 Alpha virt. eigenvalues --    0.11472   0.12983   0.16348   0.17592   0.18846

 Mulliken atomic charges:
              1
     1  C   -0.226135
     2  O   -0.337815
     3  C    0.117812
     4  O   -0.383467
     5  C   -0.220712
     6  H    0.146893
     7  H    0.159971
     8  H    0.123163
     9  H    0.119553
    10  H    0.095599
    11  H    0.150335
    12  H    0.128579
    13  H    0.126224
 Sum of Mulliken atomic charges =   0.00000

 Dipole moment (field-independent basis, Debye):
    X=              1.0069    Y=             -0.3620    Z=              1.6919  Tot=              2.0018
 Quadrupole moment (field-independent basis, Debye-Ang):
   XX=            -27.8246   YY=            -32.0101   ZZ=            -33.2822
   XY=              2.6788   XZ=             -0.3660   YZ=              0.2375

 1\1\GINC-ROCK\SP\RB3LYP\6-31+G(d,p)\C3H8O2\STYLIANAKIS\25-Feb-2018\0\\
 # b3lyp/6-31+g(d,p)\\Formaldehyde_dimethylacetal_ag_single_point\\0,1\
 C\O,1,1.426614\C,2,1.386321,1,114.31\O,3,1.417779,2,110.04,1,67.113,0\
 C,4,1.416901,3,112.805,2,-178.022,0\H,1,1.091398,2,106.42,3,174.18,0\H
 ,1,1.094649,2,111.273,3,-66.315,0\H,1,1.100156,2,110.752,3,55.537,0\H,
 3,1.099107,2,106.516,1,-173.115,0\H,3,1.108595,2,111.082,1,-53.633,0\H
 ,5,1.091541,4,106.987,3,179.674,0\H,5,1.100866,4,111.557,3,-61.303,0\H
 ,5,1.101137,4,111.616,3,60.465,0\\Version=EM64L-G09RevA.01\State=1-A\H

 Normal termination of Gaussian 09 at Sun Feb 25 23:41:12 2018.
