 Gaussian 09, Revision A.01,
 Gaussian 09:  EM64L-G09RevA.01  8-May-2009

 -------------------
 # b3lyp/6-31+g(d,p)
 -------------------

 -------------------------------------------
 Formaldehyde_dimethylacetal_aa_single_point
 -------------------------------------------
 Symbolic Z-matrix:
 Charge =  0 Multiplicity = 1

                         Standard orientation:
 ---------------------------------------------------------------------
 Center     Atomic      Atomic             Coordinates (Angstroms)
 Number     Number       Type             X           Y           Z
 ---------------------------------------------------------------------
      1          6           0       -2.339303    0.194122   -0.000094
      2          8           0       -1.117520   -0.523347    0.000132
      3          6           0       -0.000003    0.316752    0.000112
      4          8           0        1.117529   -0.523346   -0.000098
      5          6           0        2.339290    0.194123   -0.000029
      6          1           0       -3.139199   -0.547945   -0.000113
      7          1           0       -2.436558    0.827811    0.894630
      8          1           0       -2.436372    0.827572   -0.895022
      9          1           0       -0.000101    0.964439   -0.900628
     10          1           0        0.000102    0.964234    0.900978
     11          1           0        3.139212   -0.547931   -0.000205
     12          1           0        2.436427    0.827844   -0.894741
     13          1           0        2.436510    0.827535    0.894902
 ---------------------------------------------------------------------

 SCF Done:  E(RB3LYP) =  -269.566313684     A.U. after   10 cycles

 The electronic state is 1-A.
 Alpha  occ. eigenvalues --  -19.16634 -19.16634 -10.28934 -10.23929 -10.23928
 Alpha  occ. eigenvalues --   -1.07868  -1.02348  -0.74300  -0.68052  -0.63442
 Alpha  occ. eigenvalues --   -0.51532  -0.50859  -0.50624  -0.45118  -0.43403
 Alpha  occ. eigenvalues --   -0.41737  -0.40606  -0.34919  -0.33199  -0.28147
 Alpha  occ. eigenvalues --   -0.26176
 Alpha virt. eigenvalues --    0.00544   0.01566   0.03285   0.03825   0.03890
 Alpha virt. eigenvalues --    0.05429   0.06137   0.06320   0.08740   0.10086
 Alpha virt. eigenvalues --    0.13188   0.13726   0.16329   0.17556   0.18262

 Mulliken atomic charges:
              1
     1  C   -0.187066
     2  O   -0.369497
     3  C    0.106405
     4  O   -0.369493
     5  C   -0.187068
     6  H    0.152310
     7  H    0.127287
     8  H    0.127285
     9  H    0.096476
    10  H    0.096490
    11  H    0.152306
    12  H    0.127283
    13  H    0.127284
 Sum of Mulliken atomic charges =   0.00000

 Dipole moment (field-independent basis, Debye):
    X=             -0.0001    Y=              2.7188    Z=              0.0000  Tot=              2.7188
 Quadrupole moment (field-independent basis, Debye-Ang):
   XX=            -24.9303   YY=            -34.3917   ZZ=            -32.3952
   XY=              0.0000   XZ=              0.0006   YZ=              0.0002

 1\1\GINC-ROCK\SP\RB3LYP\6-31+G(d,p)\C3H8O2\STYLIANAKIS\25-Feb-2018\0\\
 # b3lyp/6-31+g(d,p)\\Formaldehyde_dimethylacetal_aa_single_point\\0,1\
 C\O,1,1.416868\C,2,1.398074,1,112.643\O,3,1.398085,2,106.132,1,-179.98
 1,0\C,4,1.416849,3,112.643,2,-179.995,0\H,1,1.0911,2,106.725,3,179.997
 ,0\H,1,1.100705,2,111.567,3,-60.946,0\H,1,1.100717,2,111.567,3,60.944,
 0\H,3,1.109428,2,110.533,1,-60.098,0\H,3,1.109411,2,110.534,1,60.136,0
 \H,5,1.091109,4,106.726,3,-180.,0\H,5,1.100703,4,111.568,3,-60.946,0\H
 ,5,1.100711,4,111.568,3,60.945,0\\Version=EM64L-G09RevA.01\State=1-A\H

 Normal termination of Gaussian 09 at Sun Feb 25 23:40:55 2018.
