 Gaussian 09, Revision A.01,
 Gaussian 09:  EM64L-G09RevA.01  8-May-2009

 -------------
 # mp2/cc-pVTZ
 -------------

 -------------------------------------------
 Formaldehyde_dimethylacetal_aa_single_point
 -------------------------------------------
 Symbolic Z-matrix:
 Charge =  0 Multiplicity = 1

                         Standard orientation:
 ---------------------------------------------------------------------
 Center     Atomic      Atomic             Coordinates (Angstroms)
 Number     Number       Type             X           Y           Z
 ---------------------------------------------------------------------
      1          6           0       -2.339303    0.194122   -0.000094
      2          8           0       -1.117520   -0.523347    0.000132
      3          6           0       -0.000003    0.316752    0.000112
      4          8           0        1.117529   -0.523346   -0.000098
      5          6           0        2.339290    0.194123   -0.000029
      6          1           0       -3.139199   -0.547945   -0.000113
      7          1           0       -2.436558    0.827811    0.894630
      8          1           0       -2.436372    0.827572   -0.895022
      9          1           0       -0.000101    0.964439   -0.900628
     10          1           0        0.000102    0.964234    0.900978
     11          1           0        3.139212   -0.547931   -0.000205
     12          1           0        2.436427    0.827844   -0.894741
     13          1           0        2.436510    0.827535    0.894902
 ---------------------------------------------------------------------

 SCF Done:  E(RHF) =  -268.049414116     A.U. after   11 cycles
 E2 =    -0.1000355485D+01 EUMP2 =    -0.26904976960107D+03

 The electronic state is 1-A.
 Alpha  occ. eigenvalues --  -20.55901 -20.55900 -11.32999 -11.27655 -11.27655
 Alpha  occ. eigenvalues --   -1.41352  -1.34735  -0.98067  -0.91208  -0.86019
 Alpha  occ. eigenvalues --   -0.69758  -0.67784  -0.67624  -0.62361  -0.59103
 Alpha  occ. eigenvalues --   -0.56536  -0.55334  -0.50362  -0.48424  -0.44739
 Alpha  occ. eigenvalues --   -0.41529
 Alpha virt. eigenvalues --    0.13671   0.15115   0.18972   0.20021   0.21839
 Alpha virt. eigenvalues --    0.22257   0.22764   0.26099   0.27196   0.27881
 Alpha virt. eigenvalues --    0.34486   0.34845   0.39182   0.39446   0.46142

 Mulliken atomic charges:
              1
     1  C   -0.067683
     2  O   -0.321012
     3  C    0.294983
     4  O   -0.321009
     5  C   -0.067681
     6  H    0.111865
     7  H    0.060644
     8  H    0.060641
     9  H    0.008047
    10  H    0.008071
    11  H    0.111858
    12  H    0.060638
    13  H    0.060639
 Sum of Mulliken atomic charges =   0.00000

 Dipole moment (field-independent basis, Debye):
    X=             -0.0001    Y=              2.7137    Z=              0.0000  Tot=              2.7137
 Quadrupole moment (field-independent basis, Debye-Ang):
   XX=            -24.7805   YY=            -33.5258   ZZ=            -31.6865
   XY=              0.0000   XZ=              0.0006   YZ=              0.0002

 Normal termination of Gaussian 09 at Thu Mar  3 21:53:40 2016.
