 Gaussian 09, Revision A.01,
 Gaussian 09:  EM64L-G09RevA.01  8-May-2009

 -------------------
 # b3lyp/6-31+g(d,p)
 -------------------

 ----------------------------------------------
 Formaldehyde_dimethylacetal_g_ecl_single_point
 ----------------------------------------------
 Symbolic Z-matrix:
 Charge =  0 Multiplicity = 1

                         Standard orientation:
 ---------------------------------------------------------------------
 Center     Atomic      Atomic             Coordinates (Angstroms)
 Number     Number       Type             X           Y           Z
 ---------------------------------------------------------------------
      1          6           0        1.621606    0.853627    0.011942
      2          8           0        1.317170   -0.528612   -0.127668
      3          6           0        0.030485   -0.885598    0.291792
      4          8           0       -0.982865   -0.319257   -0.517700
      5          6           0       -1.873602    0.577036    0.134102
      6          1           0        2.670652    0.973249   -0.264949
      7          1           0        1.001436    1.468213   -0.651128
      8          1           0        1.483850    1.185406    1.052849
      9          1           0       -0.011957   -1.973450    0.190081
     10          1           0       -0.128189   -0.591173    1.344522
     11          1           0       -2.548859    0.958902   -0.634594
     12          1           0       -2.469152    0.068705    0.905234
     13          1           0       -1.343161    1.422708    0.593911
 ---------------------------------------------------------------------

 SCF Done:  E(RB3LYP) =  -269.569684324     A.U. after   11 cycles

 The electronic state is 1-A.
 Alpha  occ. eigenvalues --  -19.16590 -19.16539 -10.28553 -10.24069 -10.23428
 Alpha  occ. eigenvalues --   -1.07235  -1.01649  -0.74385  -0.69031  -0.62506
 Alpha  occ. eigenvalues --   -0.51144  -0.50799  -0.50418  -0.44296  -0.43726
 Alpha  occ. eigenvalues --   -0.43214  -0.39448  -0.33758  -0.32756  -0.28684
 Alpha  occ. eigenvalues --   -0.27024
 Alpha virt. eigenvalues --    0.00400   0.02301   0.02714   0.03423   0.04685
 Alpha virt. eigenvalues --    0.05564   0.06172   0.06925   0.07535   0.09792
 Alpha virt. eigenvalues --    0.10575   0.12330   0.15594   0.17041   0.18698

 Mulliken atomic charges:
              1
     1  C   -0.241280
     2  O   -0.319661
     3  C    0.115759
     4  O   -0.376850
     5  C   -0.242148
     6  H    0.148865
     7  H    0.150041
     8  H    0.122133
     9  H    0.130967
    10  H    0.095631
    11  H    0.151668
    12  H    0.135562
    13  H    0.129313
 Sum of Mulliken atomic charges =   0.00000

 Dipole moment (field-independent basis, Debye):
    X=             -0.8659    Y=              1.5521    Z=              1.8032  Tot=              2.5319
 Quadrupole moment (field-independent basis, Debye-Ang):
   XX=            -31.1000   YY=            -30.5823   ZZ=            -33.3464
   XY=              1.3568   XZ=             -0.8442   YZ=             -1.3080

 1\1\GINC-ROCK\SP\RB3LYP\6-31+G(d,p)\C3H8O2\STYLIANAKIS\25-Feb-2018\0\\
 # b3lyp/6-31+g(d,p)\\Formaldehyde_dimethylacetal_g_ecl_single_point\\0
 ,1\C\O,1,1.422236\C,2,1.399623,1,114.535\O,3,1.415238,2,112.629,1,66.1
 68,0\C,4,1.421829,3,116.016,2,-117.558,0\H,1,1.091547,2,106.698,3,175.
 11,0\H,1,1.096353,2,111.368,3,-65.814,0\H,1,1.101155,2,111.029,3,56.35
 4,0\H,3,1.093421,2,105.163,1,-175.866,0\H,3,1.104583,2,110.469,1,-56.7
 68,0\H,5,1.092103,4,106.565,3,177.009,0\H,5,1.098965,4,111.69,3,-64.42
 1,0\H,5,1.099069,4,111.992,3,58.029,0\\Version=EM64L-G09RevA.01\State=

 Normal termination of Gaussian 09 at Sun Feb 25 23:41:28 2018.
