 Gaussian 09, Revision A.01,
 Gaussian 09:  EM64L-G09RevA.01  8-May-2009

 -------------
 # mp2/cc-pVTZ
 -------------

 --------------------------
 formic_acid_E_single_point
 --------------------------
 Symbolic Z-matrix:
 Charge =  0 Multiplicity = 1

                         Standard orientation:
 ---------------------------------------------------------------------
 Center     Atomic      Atomic             Coordinates (Angstroms)
 Number     Number       Type             X           Y           Z
 ---------------------------------------------------------------------
      1          6           0        0.000000    0.387267    0.000000
      2          8           0       -0.901470   -0.622963    0.000000
      3          8           0        1.184072    0.191991    0.000000
      4          1           0       -0.457072    1.393423    0.000000
      5          1           0       -1.803739   -0.269243    0.000000
 ---------------------------------------------------------------------

 SCF Done:  E(RHF) =  -188.831987559     A.U. after   12 cycles
 E2 =    -0.6317126781D+00 EUMP2 =    -0.18946370023702D+03

 The electronic state is 1-A'.
 Alpha  occ. eigenvalues --  -20.62513 -20.55931 -11.39552  -1.46649  -1.37484
 Alpha  occ. eigenvalues --   -0.86779  -0.78939  -0.66719  -0.63179  -0.59748
 Alpha  occ. eigenvalues --   -0.49037  -0.46678
 Alpha virt. eigenvalues --    0.11744   0.15802   0.17447   0.30301   0.35486
 Alpha virt. eigenvalues --    0.42608   0.48998   0.51714   0.56375   0.60403
 Alpha virt. eigenvalues --    0.67881   0.70402   0.74675   0.78185   0.80086

 Mulliken atomic charges:
              1
     1  C    0.353034
     2  O   -0.285455
     3  O   -0.358359
     4  H    0.059972
     5  H    0.230808
 Sum of Mulliken atomic charges =   0.00000

 Dipole moment (field-independent basis, Debye):
    X=             -4.0030    Y=              1.8501    Z=              0.0000  Tot=              4.4099
 Quadrupole moment (field-independent basis, Debye-Ang):
   XX=            -15.8811   YY=            -17.0852   ZZ=            -16.8526
   XY=             -1.4972   XZ=              0.0000   YZ=              0.0000

 Normal termination of Gaussian 09 at Thu Mar  3 21:59:10 2016.
