 Gaussian 09, Revision A.01,
 Gaussian 09:  EM64L-G09RevA.01  8-May-2009

 -------------------
 # b3lyp/6-31+g(d,p)
 -------------------

 --------------------------------------------
 Formaldehyde_dimethylacetal_g_g_single_point
 --------------------------------------------
 Symbolic Z-matrix:
 Charge =  0 Multiplicity = 1

                         Standard orientation:
 ---------------------------------------------------------------------
 Center     Atomic      Atomic             Coordinates (Angstroms)
 Number     Number       Type             X           Y           Z
 ---------------------------------------------------------------------
      1          6           0        1.838258   -0.559513    0.232838
      2          8           0        0.982857    0.159253   -0.652717
      3          6           0        0.000007    0.924677    0.000006
      4          8           0       -0.982849    0.159250    0.652713
      5          6           0       -1.838270   -0.559502   -0.232837
      6          1           0        2.581541   -1.061628   -0.389261
      7          1           0        2.348608    0.126129    0.925045
      8          1           0        1.282694   -1.304012    0.814677
      9          1           0        0.447402    1.548501    0.785447
     10          1           0       -0.447382    1.548487   -0.785448
     11          1           0       -2.581481   -1.061724    0.389261
     12          1           0       -2.348717    0.126163   -0.924950
     13          1           0       -1.282701   -1.303917   -0.814779
 ---------------------------------------------------------------------

 SCF Done:  E(RB3LYP) =  -269.575651261     A.U. after   10 cycles

 The electronic state is 1-A.
 Alpha  occ. eigenvalues --  -19.16642 -19.16642 -10.28365 -10.23283 -10.23283
 Alpha  occ. eigenvalues --   -1.07336  -1.01485  -0.73804  -0.69502  -0.61701
 Alpha  occ. eigenvalues --   -0.51182  -0.50432  -0.50185  -0.44234  -0.43430
 Alpha  occ. eigenvalues --   -0.42066  -0.38462  -0.36308  -0.31195  -0.28379
 Alpha  occ. eigenvalues --   -0.27832
 Alpha virt. eigenvalues --    0.01003   0.02154   0.03047   0.03701   0.04831
 Alpha virt. eigenvalues --    0.04895   0.06451   0.07362   0.07562   0.09998
 Alpha virt. eigenvalues --    0.10255   0.12863   0.16596   0.18338   0.18690

 Mulliken atomic charges:
              1
     1  C   -0.247719
     2  O   -0.365877
     3  C    0.147668
     4  O   -0.365879
     5  C   -0.247724
     6  H    0.145913
     7  H    0.128317
     8  H    0.150085
     9  H    0.115448
    10  H    0.115446
    11  H    0.145914
    12  H    0.128320
    13  H    0.150087
 Sum of Mulliken atomic charges =   0.00000

 Dipole moment (field-independent basis, Debye):
    X=              0.0000    Y=             -0.2600    Z=              0.0000  Tot=              0.2600
 Quadrupole moment (field-independent basis, Debye-Ang):
   XX=            -28.9447   YY=            -29.9460   ZZ=            -34.9130
   XY=              0.0001   XZ=              3.6064   YZ=              0.0000

 1\1\GINC-ROCK\SP\RB3LYP\6-31+G(d,p)\C3H8O2\STYLIANAKIS\25-Feb-2018\0\\
 # b3lyp/6-31+g(d,p)\\Formaldehyde_dimethylacetal_g_g_single_point\\0,1
 \C\O,1,1.425673\C,2,1.406383,1,113.917\O,3,1.406382,2,114.053,1,-68.30
 4,0\C,4,1.425675,3,113.918,2,-68.304,0\H,1,1.091603,2,106.646,3,-176.9
 2,0\H,1,1.099869,2,110.796,3,-58.144,0\H,1,1.096114,2,111.595,3,63.435
 ,0\H,3,1.098288,2,110.877,1,50.199,0\H,3,1.098286,2,105.182,1,169.996,
 0\H,5,1.091603,4,106.647,3,-176.927,0\H,5,1.099869,4,110.796,3,-58.151
 ,0\H,5,1.096114,4,111.595,3,63.428,0\\Version=EM64L-G09RevA.01\State=1

 Normal termination of Gaussian 09 at Sun Feb 25 23:41:45 2018.
