 Gaussian 09, Revision A.01,
 Gaussian 09:  EM64L-G09RevA.01  8-May-2009

 -------------
 # mp2/cc-pVTZ
 -------------

 ----------------------------------------------
 Formaldehyde_dimethylacetal_g_ecl_single_point
 ----------------------------------------------
 Symbolic Z-matrix:
 Charge =  0 Multiplicity = 1

                         Standard orientation:
 ---------------------------------------------------------------------
 Center     Atomic      Atomic             Coordinates (Angstroms)
 Number     Number       Type             X           Y           Z
 ---------------------------------------------------------------------
      1          6           0        1.621606    0.853627    0.011942
      2          8           0        1.317170   -0.528612   -0.127668
      3          6           0        0.030485   -0.885598    0.291792
      4          8           0       -0.982865   -0.319257   -0.517700
      5          6           0       -1.873602    0.577036    0.134102
      6          1           0        2.670652    0.973249   -0.264949
      7          1           0        1.001436    1.468213   -0.651128
      8          1           0        1.483850    1.185406    1.052849
      9          1           0       -0.011957   -1.973450    0.190081
     10          1           0       -0.128189   -0.591173    1.344522
     11          1           0       -2.548859    0.958902   -0.634594
     12          1           0       -2.469152    0.068705    0.905234
     13          1           0       -1.343161    1.422708    0.593911
 ---------------------------------------------------------------------

 SCF Done:  E(RHF) =  -268.050728912     A.U. after   12 cycles
 E2 =    -0.1002423295D+01 EUMP2 =    -0.26905315220711D+03

 The electronic state is 1-A.
 Alpha  occ. eigenvalues --  -20.55810 -20.55778 -11.32731 -11.27867 -11.27171
 Alpha  occ. eigenvalues --   -1.40659  -1.34168  -0.98322  -0.92314  -0.84746
 Alpha  occ. eigenvalues --   -0.68854  -0.68394  -0.67291  -0.60743  -0.59855
 Alpha  occ. eigenvalues --   -0.58737  -0.54085  -0.49424  -0.47929  -0.44434
 Alpha  occ. eigenvalues --   -0.42881
 Alpha virt. eigenvalues --    0.13722   0.16895   0.18094   0.19858   0.21147
 Alpha virt. eigenvalues --    0.21995   0.22591   0.24954   0.26545   0.27355
 Alpha virt. eigenvalues --    0.33996   0.35332   0.38756   0.40981   0.45857

 Mulliken atomic charges:
              1
     1  C   -0.073937
     2  O   -0.348318
     3  C    0.226165
     4  O   -0.374409
     5  C   -0.064444
     6  H    0.116129
     7  H    0.083561
     8  H    0.053584
     9  H    0.101564
    10  H    0.034025
    11  H    0.109512
    12  H    0.076276
    13  H    0.060293
 Sum of Mulliken atomic charges =   0.00000

 Dipole moment (field-independent basis, Debye):
    X=             -0.8539    Y=              1.4745    Z=              1.8052  Tot=              2.4824
 Quadrupole moment (field-independent basis, Debye-Ang):
   XX=            -30.6476   YY=            -29.9625   ZZ=            -32.5327
   XY=              1.2502   XZ=             -0.8410   YZ=             -1.2249

 Normal termination of Gaussian 09 at Thu Mar  3 21:57:14 2016.
