 Gaussian 09, Revision A.01,
 Gaussian 09:  EM64L-G09RevA.01  8-May-2009

 -------------
 # mp2/cc-pVTZ
 -------------

 --------------------------------------------
 Formaldehyde_dimethylacetal_g_g_single_point
 --------------------------------------------
 Symbolic Z-matrix:
 Charge =  0 Multiplicity = 1

                         Standard orientation:
 ---------------------------------------------------------------------
 Center     Atomic      Atomic             Coordinates (Angstroms)
 Number     Number       Type             X           Y           Z
 ---------------------------------------------------------------------
      1          6           0        1.838258   -0.559513    0.232838
      2          8           0        0.982857    0.159253   -0.652717
      3          6           0        0.000007    0.924677    0.000006
      4          8           0       -0.982849    0.159250    0.652713
      5          6           0       -1.838270   -0.559502   -0.232837
      6          1           0        2.581541   -1.061628   -0.389261
      7          1           0        2.348608    0.126129    0.925045
      8          1           0        1.282694   -1.304012    0.814677
      9          1           0        0.447402    1.548501    0.785447
     10          1           0       -0.447382    1.548487   -0.785448
     11          1           0       -2.581481   -1.061724    0.389261
     12          1           0       -2.348717    0.126163   -0.924950
     13          1           0       -1.282701   -1.303917   -0.814779
 ---------------------------------------------------------------------

 SCF Done:  E(RHF) =  -268.056677920     A.U. after   11 cycles
 E2 =    -0.1002632510D+01 EUMP2 =    -0.26905931042930D+03

 The electronic state is 1-A.
 Alpha  occ. eigenvalues --  -20.55915 -20.55913 -11.32557 -11.27067 -11.27067
 Alpha  occ. eigenvalues --   -1.40788  -1.34054  -0.97737  -0.92935  -0.83742
 Alpha  occ. eigenvalues --   -0.68832  -0.68538  -0.67019  -0.60742  -0.59912
 Alpha  occ. eigenvalues --   -0.57140  -0.52811  -0.52028  -0.46263  -0.44090
 Alpha  occ. eigenvalues --   -0.43983
 Alpha virt. eigenvalues --    0.14366   0.16622   0.18415   0.20134   0.22181
 Alpha virt. eigenvalues --    0.22348   0.23153   0.24529   0.26634   0.28616
 Alpha virt. eigenvalues --    0.32932   0.35803   0.39378   0.40157   0.42384

 Mulliken atomic charges:
              1
     1  C   -0.069337
     2  O   -0.373153
     3  C    0.255713
     4  O   -0.373155
     5  C   -0.069342
     6  H    0.102696
     7  H    0.064288
     8  H    0.081457
     9  H    0.066195
    10  H    0.066190
    11  H    0.102696
    12  H    0.064293
    13  H    0.081458
 Sum of Mulliken atomic charges =   0.00000

 Dipole moment (field-independent basis, Debye):
    X=              0.0000    Y=             -0.1848    Z=              0.0000  Tot=              0.1848
 Quadrupole moment (field-independent basis, Debye-Ang):
   XX=            -28.5790   YY=            -29.3975   ZZ=            -34.0112
   XY=              0.0001   XZ=              3.5354   YZ=              0.0000

 Normal termination of Gaussian 09 at Thu Mar  3 21:59:01 2016.
