 Gaussian 09, Revision A.01,
 Gaussian 09:  EM64L-G09RevA.01  8-May-2009

 -------------
 # mp2/cc-pVTZ
 -------------

 --------------------------
 formic_acid_Z_single_point
 --------------------------
 Symbolic Z-matrix:
 Charge =  0 Multiplicity = 1

                         Standard orientation:
 ---------------------------------------------------------------------
 Center     Atomic      Atomic             Coordinates (Angstroms)
 Number     Number       Type             X           Y           Z
 ---------------------------------------------------------------------
      1          6           0        0.000000    0.423578    0.000000
      2          8           0       -1.034523   -0.439551    0.000000
      3          8           0        1.165021    0.107684    0.000000
      4          1           0       -0.375015    1.455823    0.000000
      5          1           0       -0.668976   -1.342354    0.000000
 ---------------------------------------------------------------------

 SCF Done:  E(RHF) =  -188.839897512     A.U. after   12 cycles
 E2 =    -0.6310592234D+00 EUMP2 =    -0.18947095673555D+03

 The electronic state is 1-A'.
 Alpha  occ. eigenvalues --  -20.62521 -20.56314 -11.39593  -1.47142  -1.37202
 Alpha  occ. eigenvalues --   -0.89398  -0.72158  -0.70983  -0.63424  -0.60124
 Alpha  occ. eigenvalues --   -0.49348  -0.47173
 Alpha virt. eigenvalues --    0.14672   0.15863   0.16890   0.30272   0.34229
 Alpha virt. eigenvalues --    0.42736   0.48535   0.54423   0.56543   0.60502
 Alpha virt. eigenvalues --    0.69464   0.71096   0.74735   0.75559   0.79436

 Mulliken atomic charges:
              1
     1  C    0.367632
     2  O   -0.332048
     3  O   -0.391050
     4  H    0.098060
     5  H    0.257405
 Sum of Mulliken atomic charges =   0.00000

 Dipole moment (field-independent basis, Debye):
    X=             -1.7341    Y=             -0.1257    Z=              0.0000  Tot=              1.7387
 Quadrupole moment (field-independent basis, Debye-Ang):
   XX=            -22.5098   YY=            -12.2508   ZZ=            -16.8557
   XY=             -0.2138   XZ=              0.0000   YZ=              0.0000

 Normal termination of Gaussian 09 at Thu Mar  3 21:59:20 2016.
