 Gaussian 09, Revision A.01,
 Gaussian 09:  EM64L-G09RevA.01  8-May-2009

 -------------
 # mp2/cc-pVTZ
 -------------

 -------------------------------------------
 Formaldehyde_dimethylacetal_ag_single_point
 -------------------------------------------
 Symbolic Z-matrix:
 Charge =  0 Multiplicity = 1

                         Standard orientation:
 ---------------------------------------------------------------------
 Center     Atomic      Atomic             Coordinates (Angstroms)
 Number     Number       Type             X           Y           Z
 ---------------------------------------------------------------------
      1          6           0       -1.938127   -0.616172    0.133905
      2          8           0       -1.269386    0.575771   -0.275099
      3          6           0        0.025954    0.696448    0.203876
      4          8           0        0.854388   -0.294564   -0.380666
      5          6           0        2.185501   -0.252840    0.103073
      6          1           0       -2.966562   -0.530266   -0.221189
      7          1           0       -1.469466   -1.504104   -0.302201
      8          1           0       -1.939157   -0.705902    1.230395
      9          1           0        0.370982    1.701205   -0.078003
     10          1           0        0.055302    0.585822    1.306547
     11          1           0        2.732980   -1.051708   -0.400454
     12          1           0        2.668735    0.709666   -0.124901
     13          1           0        2.227201   -0.418987    1.190804
 ---------------------------------------------------------------------

 SCF Done:  E(RHF) =  -268.053542928     A.U. after   12 cycles
 E2 =    -0.1001415572D+01 EUMP2 =    -0.26905495849990D+03

 The electronic state is 1-A.
 Alpha  occ. eigenvalues --  -20.55942 -20.55786 -11.32776 -11.27709 -11.26885
 Alpha  occ. eigenvalues --   -1.41064  -1.34325  -0.97746  -0.92304  -0.84715
 Alpha  occ. eigenvalues --   -0.69225  -0.68141  -0.67350  -0.61470  -0.58793
 Alpha  occ. eigenvalues --   -0.58247  -0.53565  -0.49837  -0.48850  -0.43963
 Alpha  occ. eigenvalues --   -0.42565
 Alpha virt. eigenvalues --    0.13907   0.16268   0.18466   0.19851   0.21860
 Alpha virt. eigenvalues --    0.22539   0.23378   0.25559   0.26807   0.27326
 Alpha virt. eigenvalues --    0.34749   0.35502   0.38135   0.39373   0.43233

 Mulliken atomic charges:
              1
     1  C   -0.056309
     2  O   -0.339866
     3  C    0.221337
     4  O   -0.356807
     5  C   -0.054991
     6  H    0.104246
     7  H    0.089586
     8  H    0.052895
     9  H    0.085086
    10  H    0.023722
    11  H    0.110321
    12  H    0.061609
    13  H    0.059169
 Sum of Mulliken atomic charges =   0.00000

 Dipole moment (field-independent basis, Debye):
    X=              1.0259    Y=             -0.3008    Z=              1.7028  Tot=              2.0106
 Quadrupole moment (field-independent basis, Debye-Ang):
   XX=            -27.4868   YY=            -31.3217   ZZ=            -32.4693
   XY=              2.6106   XZ=             -0.3261   YZ=              0.2317

 Normal termination of Gaussian 09 at Thu Mar  3 21:55:24 2016.
