 Gaussian 09, Revision A.01,
 Gaussian 09:  EM64L-G09RevA.01  8-May-2009

 -------------
 # mp2/cc-pVTZ
 -------------

 ------------------------------
 glycolic_acid_cis_single_point
 ------------------------------
 Symbolic Z-matrix:
 Charge =  0 Multiplicity = 1

                         Standard orientation:
 ---------------------------------------------------------------------
 Center     Atomic      Atomic             Coordinates (Angstroms)
 Number     Number       Type             X           Y           Z
 ---------------------------------------------------------------------
      1          6           0        0.760214   -0.673788    0.000114
      2          8           0        1.850450    0.219867   -0.000119
      3          6           0       -0.533474    0.120101    0.000104
      4          8           0       -0.648248    1.320396    0.000028
      5          8           0       -1.592565   -0.733535   -0.000097
      6          1           0        0.746139   -1.324729    0.887051
      7          1           0        0.746003   -1.325043   -0.886587
      8          1           0       -2.399107   -0.191032   -0.000146
      9          1           0        2.669431   -0.290894   -0.000127
 ---------------------------------------------------------------------

 SCF Done:  E(RHF) =  -302.775065660     A.U. after   12 cycles
 E2 =    -0.1034527389D+01 EUMP2 =    -0.30380959304868D+03

 The electronic state is 1-A.
 Alpha  occ. eigenvalues --  -20.61509 -20.57436 -20.55102 -11.38972 -11.31089
 Alpha  occ. eigenvalues --   -1.46458  -1.38155  -1.35924  -1.00626  -0.81723
 Alpha  occ. eigenvalues --   -0.73327  -0.69971  -0.67728  -0.66365  -0.60355
 Alpha  occ. eigenvalues --   -0.59676  -0.54163  -0.48576  -0.47043  -0.45430
 Alpha virt. eigenvalues --    0.12770   0.14770   0.16531   0.18407   0.21945
 Alpha virt. eigenvalues --    0.29460   0.31426   0.36803   0.41495   0.45861
 Alpha virt. eigenvalues --    0.48555   0.49834   0.51214   0.53893   0.57494

 Mulliken atomic charges:
              1
     1  C    0.071137
     2  O   -0.365414
     3  C    0.384633
     4  O   -0.368797
     5  O   -0.356967
     6  H    0.078496
     7  H    0.078511
     8  H    0.256199
     9  H    0.222201
 Sum of Mulliken atomic charges =   0.00000

 Dipole moment (field-independent basis, Debye):
    X=              0.3475    Y=             -3.4496    Z=              0.0004  Tot=              3.4670
 Quadrupole moment (field-independent basis, Debye-Ang):
   XX=            -19.9465   YY=            -33.7215   ZZ=            -28.2317
   XY=             -4.1332   XZ=              0.0004   YZ=             -0.0001

 Normal termination of Gaussian 09 at Thu Mar  3 22:02:03 2016.
