 Gaussian 09, Revision A.01,
 Gaussian 09:  EM64L-G09RevA.01  8-May-2009

 -------------
 # mp2/cc-pVTZ
 -------------

 -------------------------------
 glycolic_acid_cis1_single_point
 -------------------------------
 Symbolic Z-matrix:
 Charge =  0 Multiplicity = 1

                         Standard orientation:
 ---------------------------------------------------------------------
 Center     Atomic      Atomic             Coordinates (Angstroms)
 Number     Number       Type             X           Y           Z
 ---------------------------------------------------------------------
      1          6           0       -0.742143   -0.747435    0.000086
      2          8           0       -1.897511    0.055015   -0.000117
      3          6           0        0.516043    0.096007   -0.000004
      4          8           0        0.508699    1.310584    0.000022
      5          8           0        1.640023   -0.645558   -0.000052
      6          1           0       -0.721549   -1.398659   -0.884725
      7          1           0       -0.721527   -1.398315    0.885170
      8          1           0        2.399399   -0.037652   -0.000028
      9          1           0       -1.609414    0.982864    0.000262
 ---------------------------------------------------------------------

 SCF Done:  E(RHF) =  -302.782296964     A.U. after   12 cycles
 E2 =    -0.1034792954D+01 EUMP2 =    -0.30381708991842D+03

 The electronic state is 1-A.
 Alpha  occ. eigenvalues --  -20.63193 -20.56878 -20.56440 -11.40487 -11.30825
 Alpha  occ. eigenvalues --   -1.48291  -1.38803  -1.36304  -1.00565  -0.83610
 Alpha  occ. eigenvalues --   -0.74084  -0.72390  -0.68246  -0.64592  -0.61194
 Alpha  occ. eigenvalues --   -0.60939  -0.54078  -0.50247  -0.47487  -0.46397
 Alpha virt. eigenvalues --    0.13326   0.15553   0.15985   0.19625   0.21862
 Alpha virt. eigenvalues --    0.29330   0.32216   0.35927   0.40812   0.44504
 Alpha virt. eigenvalues --    0.48915   0.49260   0.50112   0.54508   0.57335

 Mulliken atomic charges:
              1
     1  C    0.105493
     2  O   -0.422143
     3  C    0.380400
     4  O   -0.412786
     5  O   -0.330543
     6  H    0.082599
     7  H    0.082560
     8  H    0.258643
     9  H    0.255777
 Sum of Mulliken atomic charges =   0.00000

 Dipole moment (field-independent basis, Debye):
    X=              2.0436    Y=             -1.1996    Z=              0.0008  Tot=              2.3697
 Quadrupole moment (field-independent basis, Debye-Ang):
   XX=            -28.8058   YY=            -30.9366   ZZ=            -28.1693
   XY=             -0.1306   XZ=             -0.0014   YZ=              0.0006

 Normal termination of Gaussian 09 at Thu Mar  3 22:00:42 2016.
