 Gaussian 09, Revision A.01,
 Gaussian 09:  EM64L-G09RevA.01  8-May-2009

 -------------
 # mp2/cc-pVTZ
 -------------

 -----------------------------
 glycolic_acid_sk_single_point
 -----------------------------
 Symbolic Z-matrix:
 Charge =  0 Multiplicity = 1

                         Standard orientation:
 ---------------------------------------------------------------------
 Center     Atomic      Atomic             Coordinates (Angstroms)
 Number     Number       Type             X           Y           Z
 ---------------------------------------------------------------------
      1          6           0       -0.778067   -0.698673    0.000102
      2          8           0       -1.786319    0.292601   -0.000368
      3          6           0        0.613414   -0.093279    0.000081
      4          8           0        1.613046   -0.783046   -0.000110
      5          8           0        0.637950    1.249937    0.000118
      6          1           0       -0.827905   -1.347371   -0.886165
      7          1           0       -0.828168   -1.346921    0.886659
      8          1           0        1.574929    1.512102   -0.000047
      9          1           0       -2.648351   -0.142039    0.001341
 ---------------------------------------------------------------------

 SCF Done:  E(RHF) =  -302.774634009     A.U. after   13 cycles
 E2 =    -0.1034173761D+01 EUMP2 =    -0.30380880776940D+03

 The electronic state is 1-A.
 Alpha  occ. eigenvalues --  -20.61531 -20.57698 -20.54745 -11.39215 -11.31053
 Alpha  occ. eigenvalues --   -1.46714  -1.38005  -1.36010  -1.00235  -0.82867
 Alpha  occ. eigenvalues --   -0.72568  -0.68994  -0.68197  -0.67691  -0.60398
 Alpha  occ. eigenvalues --   -0.58583  -0.54341  -0.49583  -0.46049  -0.45587
 Alpha virt. eigenvalues --    0.12600   0.15618   0.16120   0.17933   0.22517
 Alpha virt. eigenvalues --    0.29670   0.31370   0.36651   0.45381   0.45943
 Alpha virt. eigenvalues --    0.47676   0.47900   0.50466   0.52453   0.56093

 Mulliken atomic charges:
              1
     1  C    0.077179
     2  O   -0.376043
     3  C    0.380011
     4  O   -0.418813
     5  O   -0.302083
     6  H    0.083003
     7  H    0.082984
     8  H    0.250167
     9  H    0.223594
 Sum of Mulliken atomic charges =   0.00000

 Dipole moment (field-independent basis, Debye):
    X=             -1.9678    Y=             -0.4064    Z=              0.0035  Tot=              2.0094
 Quadrupole moment (field-independent basis, Debye-Ang):
   XX=            -25.7756   YY=            -29.3248   ZZ=            -28.1873
   XY=              9.4435   XZ=             -0.0093   YZ=             -0.0013

 Normal termination of Gaussian 09 at Thu Mar  3 22:03:26 2016.
