 Gaussian 09, Revision A.01,
 Gaussian 09:  EM64L-G09RevA.01  8-May-2009

 -------------
 # mp2/cc-pVTZ
 -------------

 --------------------------
 isopropanol_g_single_point
 --------------------------
 Symbolic Z-matrix:
 Charge =  0 Multiplicity = 1

                         Standard orientation:
 ---------------------------------------------------------------------
 Center     Atomic      Atomic             Coordinates (Angstroms)
 Number     Number       Type             X           Y           Z
 ---------------------------------------------------------------------
      1          6           0       -1.328902   -0.556855   -0.089830
      2          6           0       -0.001929    0.038072    0.364308
      3          8           0        0.041897    1.374344   -0.162826
      4          6           0        1.203221   -0.779696   -0.103229
      5          1           0       -2.161586    0.067338    0.247236
      6          1           0       -1.364628   -0.615468   -1.183101
      7          1           0       -1.460419   -1.564203    0.318817
      8          1           0        0.005891    0.088078    1.465394
      9          1           0        2.144514   -0.322991    0.226767
     10          1           0        1.167956   -1.795613    0.306266
     11          1           0        1.219106   -0.844652   -1.196643
     12          1           0        0.879656    1.783630    0.090383
 ---------------------------------------------------------------------

 SCF Done:  E(RHF) =  -193.194060878     A.U. after   11 cycles
 E2 =    -0.7778749784D+00 EUMP2 =    -0.19397193585624D+03

 The electronic state is 1-A.
 Alpha  occ. eigenvalues --  -20.54706 -11.28056 -11.21854 -11.21145  -1.34867
 Alpha  occ. eigenvalues --   -1.03920  -0.93698  -0.79671  -0.68931  -0.62400
 Alpha  occ. eigenvalues --   -0.60113  -0.54454  -0.53213  -0.52494  -0.50866
 Alpha  occ. eigenvalues --   -0.47071  -0.43466
 Alpha virt. eigenvalues --    0.13369   0.17253   0.18196   0.19240   0.20832
 Alpha virt. eigenvalues --    0.22206   0.24273   0.26184   0.29609   0.33437
 Alpha virt. eigenvalues --    0.36073   0.37586   0.39324   0.44722   0.46098

 Mulliken atomic charges:
              1
     1  C   -0.275302
     2  C    0.156994
     3  O   -0.428522
     4  C   -0.282965
     5  H    0.106051
     6  H    0.092163
     7  H    0.080366
     8  H    0.067890
     9  H    0.082550
    10  H    0.086877
    11  H    0.096964
    12  H    0.216934
 Sum of Mulliken atomic charges =   0.00000

 Dipole moment (field-independent basis, Debye):
    X=              1.1919    Y=             -0.8243    Z=              0.8966  Tot=              1.7042
 Quadrupole moment (field-independent basis, Debye-Ang):
   XX=            -25.4449   YY=            -27.2424   ZZ=            -26.7828
   XY=              2.7204   XZ=              0.2598   YZ=              1.1013

 Normal termination of Gaussian 09 at Thu Mar  3 22:05:26 2016.
