 Gaussian 09, Revision A.01,
 Gaussian 09:  EM64L-G09RevA.01  8-May-2009

 -------------
 # mp2/cc-pVTZ
 -------------

 --------------------------
 isopropanol_a_single_point
 --------------------------
 Symbolic Z-matrix:
 Charge =  0 Multiplicity = 1

                         Standard orientation:
 ---------------------------------------------------------------------
 Center     Atomic      Atomic             Coordinates (Angstroms)
 Number     Number       Type             X           Y           Z
 ---------------------------------------------------------------------
      1          6           0        1.273393   -0.668798    0.099348
      2          6           0       -0.000005    0.037281   -0.370246
      3          8           0        0.000048    1.418244    0.022050
      4          6           0       -1.273446   -0.668702    0.099363
      5          1           0        2.159603   -0.128293   -0.246004
      6          1           0        1.308170   -0.721979    1.195614
      7          1           0        1.319301   -1.694180   -0.284667
      8          1           0       -0.000017    0.080414   -1.465547
      9          1           0       -2.159612   -0.128177   -0.246076
     10          1           0       -1.319407   -1.694113   -0.284569
     11          1           0       -1.308288   -0.721780    1.195630
     12          1           0        0.000208    1.463471    0.988431
 ---------------------------------------------------------------------

 SCF Done:  E(RHF) =  -193.193595379     A.U. after   11 cycles
 E2 =    -0.7779694144D+00 EUMP2 =    -0.19397156479382D+03

 The electronic state is 1-A.
 Alpha  occ. eigenvalues --  -20.54715 -11.28044 -11.21761 -11.21759  -1.34901
 Alpha  occ. eigenvalues --   -1.03885  -0.93792  -0.81164  -0.65742  -0.63533
 Alpha  occ. eigenvalues --   -0.59724  -0.57453  -0.54235  -0.51272  -0.50879
 Alpha  occ. eigenvalues --   -0.46775  -0.43613
 Alpha virt. eigenvalues --    0.13458   0.16723   0.18161   0.19588   0.20596
 Alpha virt. eigenvalues --    0.22118   0.23806   0.25636   0.29356   0.32812
 Alpha virt. eigenvalues --    0.34948   0.37777   0.40952   0.44639   0.47051

 Mulliken atomic charges:
              1
     1  C   -0.282952
     2  C    0.145556
     3  O   -0.435094
     4  C   -0.282940
     5  H    0.109254
     6  H    0.074976
     7  H    0.086462
     8  H    0.095640
     9  H    0.109249
    10  H    0.086458
    11  H    0.074977
    12  H    0.218415
 Sum of Mulliken atomic charges =   0.00000

 Dipole moment (field-independent basis, Debye):
    X=              0.0002    Y=             -1.4468    Z=              0.9306  Tot=              1.7202
 Quadrupole moment (field-independent basis, Debye-Ang):
   XX=            -27.1080   YY=            -29.5636   ZZ=            -24.3481
   XY=              0.0003   XZ=              0.0004   YZ=              2.4542

 Normal termination of Gaussian 09 at Thu Mar  3 22:04:26 2016.
