 Gaussian 09, Revision A.01,
 Gaussian 09:  EM64L-G09RevA.01  8-May-2009

 -------------
 # mp2/cc-pVTZ
 -------------

 -------------------------
 Me_acetate_E_single_point
 -------------------------
 Symbolic Z-matrix:
 Charge =  0 Multiplicity = 1

                         Standard orientation:
 ---------------------------------------------------------------------
 Center     Atomic      Atomic             Coordinates (Angstroms)
 Number     Number       Type             X           Y           Z
 ---------------------------------------------------------------------
      1          6           0        0.670922    1.348132   -0.000056
      2          6           0        0.604627   -0.166251   -0.000465
      3          8           0       -0.624573   -0.753428   -0.000505
      4          6           0       -1.825947    0.027279    0.000317
      5          8           0        1.583249   -0.876469    0.000414
      6          1           0       -2.641580   -0.696095    0.001710
      7          1           0       -1.899878    0.652776    0.895830
      8          1           0       -1.901855    0.651564   -0.895895
      9          1           0        0.178143    1.767102    0.883349
     10          1           0        1.719953    1.641093    0.000145
     11          1           0        0.178193    1.767777   -0.883182
 ---------------------------------------------------------------------

 SCF Done:  E(RHF) =  -266.921375684     A.U. after   13 cycles
 E2 =    -0.9744768045D+00 EUMP2 =    -0.26789585248819D+03

 The electronic state is 1-A.
 Alpha  occ. eigenvalues --  -20.60050 -20.53458 -11.38171 -11.30248 -11.25296
 Alpha  occ. eigenvalues --   -1.44793  -1.35271  -1.02179  -0.97636  -0.78019
 Alpha  occ. eigenvalues --   -0.69421  -0.67933  -0.67332  -0.59627  -0.59282
 Alpha  occ. eigenvalues --   -0.57618  -0.54328  -0.52063  -0.44984  -0.44090
 Alpha virt. eigenvalues --    0.12125   0.16474   0.17051   0.18138   0.19488
 Alpha virt. eigenvalues --    0.22800   0.23874   0.27460   0.29944   0.34078
 Alpha virt. eigenvalues --    0.37305   0.37412   0.39420   0.43141   0.47655

 Mulliken atomic charges:
              1
     1  C   -0.319052
     2  C    0.393000
     3  O   -0.279640
     4  C   -0.074532
     5  O   -0.375163
     6  H    0.135515
     7  H    0.078743
     8  H    0.078805
     9  H    0.106748
    10  H    0.148833
    11  H    0.106743
 Sum of Mulliken atomic charges =   0.00000

 Dipole moment (field-independent basis, Debye):
    X=             -3.2922    Y=              3.7712    Z=             -0.0003  Tot=              5.0061
 Quadrupole moment (field-independent basis, Debye-Ang):
   XX=            -30.9903   YY=            -32.0416   ZZ=            -29.2232
   XY=              3.2544   XZ=             -0.0037   YZ=              0.0004

 Normal termination of Gaussian 09 at Thu Mar  3 22:06:37 2016.
