 Gaussian 09, Revision A.01,
 Gaussian 09:  EM64L-G09RevA.01  8-May-2009

 -------------
 # mp2/cc-pVTZ
 -------------

 ----------------------------
 Me_acetate_E_lp_single_point
 ----------------------------
 Symbolic Z-matrix:
 Charge =  0 Multiplicity = 1

                         Standard orientation:
 ---------------------------------------------------------------------
 Center     Atomic      Atomic             Coordinates (Angstroms)
 Number     Number       Type             X           Y           Z
 ---------------------------------------------------------------------
      1          6           0        0.671504    1.348075   -0.000077
      2          6           0        0.604705   -0.166275    0.000392
      3          8           0       -0.624857   -0.753255   -0.000185
      4          6           0       -1.826117    0.027619    0.000053
      5          8           0        1.582945   -0.876896   -0.000050
      6          1           0       -2.641634   -0.696006    0.000169
      7          1           0       -1.900660    0.652385    0.896130
      8          1           0       -1.900941    0.652405   -0.895992
      9          1           0        0.177929    1.767115   -0.883088
     10          1           0        0.179440    1.767742    0.883493
     11          1           0        1.720608    1.641055   -0.001028
 ---------------------------------------------------------------------

 SCF Done:  E(RHF) =  -266.921364005     A.U. after   13 cycles
 E2 =    -0.9744813190D+00 EUMP2 =    -0.26789584532398D+03

 The electronic state is 1-A.
 Alpha  occ. eigenvalues --  -20.60044 -20.53461 -11.38171 -11.30248 -11.25301
 Alpha  occ. eigenvalues --   -1.44786  -1.35272  -1.02179  -0.97627  -0.78012
 Alpha  occ. eigenvalues --   -0.69419  -0.67929  -0.67328  -0.59627  -0.59281
 Alpha  occ. eigenvalues --   -0.57620  -0.54326  -0.52060  -0.44984  -0.44090
 Alpha virt. eigenvalues --    0.12126   0.16474   0.17050   0.18137   0.19487
 Alpha virt. eigenvalues --    0.22799   0.23874   0.27459   0.29941   0.34077
 Alpha virt. eigenvalues --    0.37304   0.37417   0.39415   0.43134   0.47655

 Mulliken atomic charges:
              1
     1  C   -0.318944
     2  C    0.393009
     3  O   -0.279815
     4  C   -0.074522
     5  O   -0.375032
     6  H    0.135504
     7  H    0.078762
     8  H    0.078756
     9  H    0.106722
    10  H    0.106748
    11  H    0.148810
 Sum of Mulliken atomic charges =   0.00000

 Dipole moment (field-independent basis, Debye):
    X=             -3.2891    Y=              3.7723    Z=              0.0012  Tot=              5.0048
 Quadrupole moment (field-independent basis, Debye-Ang):
   XX=            -30.9885   YY=            -32.0429   ZZ=            -29.2232
   XY=              3.2555   XZ=              0.0000   YZ=             -0.0008

 Normal termination of Gaussian 09 at Thu Mar  3 22:07:48 2016.
