 Gaussian 09, Revision A.01,
 Gaussian 09:  EM64L-G09RevA.01  8-May-2009

 -------------
 # mp2/cc-pVTZ
 -------------

 -------------------------
 Me_acetate_Z_single_point
 -------------------------
 Symbolic Z-matrix:
 Charge =  0 Multiplicity = 1

                         Standard orientation:
 ---------------------------------------------------------------------
 Center     Atomic      Atomic             Coordinates (Angstroms)
 Number     Number       Type             X           Y           Z
 ---------------------------------------------------------------------
      1          6           0       -1.804672   -0.524772   -0.000039
      2          6           0       -0.461979    0.164346    0.000114
      3          8           0        0.561042   -0.721745    0.000022
      4          6           0        1.885015   -0.152607   -0.000025
      5          8           0       -0.299339    1.367966   -0.000022
      6          1           0        2.565534   -1.003478   -0.000244
      7          1           0        2.034446    0.463427   -0.890014
      8          1           0        2.034634    0.463139    0.890133
      9          1           0       -1.706145   -1.610660   -0.000401
     10          1           0       -2.366070   -0.202305    0.881624
     11          1           0       -2.366201   -0.201697   -0.881392
 ---------------------------------------------------------------------

 SCF Done:  E(RHF) =  -266.934555391     A.U. after   12 cycles
 E2 =    -0.9733043506D+00 EUMP2 =    -0.26790785974190D+03

 The electronic state is 1-A.
 Alpha  occ. eigenvalues --  -20.60282 -20.53842 -11.38045 -11.28609 -11.24217
 Alpha  occ. eigenvalues --   -1.45318  -1.35125  -1.03074  -0.94715  -0.77544
 Alpha  occ. eigenvalues --   -0.68989  -0.67330  -0.67161  -0.59338  -0.58880
 Alpha  occ. eigenvalues --   -0.55709  -0.52666  -0.52039  -0.45908  -0.44653
 Alpha virt. eigenvalues --    0.14182   0.15902   0.16806   0.20344   0.22007
 Alpha virt. eigenvalues --    0.22179   0.24226   0.25103   0.29150   0.36499
 Alpha virt. eigenvalues --    0.37418   0.38118   0.39556   0.43662   0.46909

 Mulliken atomic charges:
              1
     1  C   -0.266086
     2  C    0.405163
     3  O   -0.311438
     4  C   -0.055092
     5  O   -0.418609
     6  H    0.108584
     7  H    0.093860
     8  H    0.093847
     9  H    0.118325
    10  H    0.115710
    11  H    0.115736
 Sum of Mulliken atomic charges =   0.00000

 Dipole moment (field-independent basis, Debye):
    X=              0.2228    Y=             -2.0191    Z=              0.0002  Tot=              2.0314
 Quadrupole moment (field-independent basis, Debye-Ang):
   XX=            -23.5598   YY=            -35.7071   ZZ=            -29.1732
   XY=              1.6300   XZ=             -0.0002   YZ=              0.0001

 Normal termination of Gaussian 09 at Thu Mar  3 22:08:56 2016.
