 Gaussian 09, Revision A.01,
 Gaussian 09:  EM64L-G09RevA.01  8-May-2009

 -------------
 # mp2/cc-pVTZ
 -------------

 ----------------------------
 Me_acetate_Z_lp_single_point
 ----------------------------
 Symbolic Z-matrix:
 Charge =  0 Multiplicity = 1

                         Standard orientation:
 ---------------------------------------------------------------------
 Center     Atomic      Atomic             Coordinates (Angstroms)
 Number     Number       Type             X           Y           Z
 ---------------------------------------------------------------------
      1          6           0       -1.802802   -0.522225   -0.000014
      2          6           0       -0.465236    0.175200    0.000018
      3          8           0        0.552807   -0.718539    0.000008
      4          6           0        1.881012   -0.161299   -0.000009
      5          8           0       -0.293670    1.377100   -0.000004
      6          1           0        2.554618   -1.017818   -0.000272
      7          1           0        2.036903    0.453668   -0.889951
      8          1           0        2.037093    0.453224    0.890207
      9          1           0       -1.890005   -1.164628   -0.881692
     10          1           0       -1.890117   -1.164384    0.881839
     11          1           0       -2.599429    0.221392   -0.000132
 ---------------------------------------------------------------------

 SCF Done:  E(RHF) =  -266.935356590     A.U. after   12 cycles
 E2 =    -0.9728375757D+00 EUMP2 =    -0.26790819416594D+03

 The electronic state is 1-A.
 Alpha  occ. eigenvalues --  -20.60080 -20.54091 -11.38016 -11.28598 -11.24264
 Alpha  occ. eigenvalues --   -1.45267  -1.35186  -1.03152  -0.94608  -0.77496
 Alpha  occ. eigenvalues --   -0.69087  -0.67222  -0.67215  -0.59189  -0.58921
 Alpha  occ. eigenvalues --   -0.55820  -0.52637  -0.52073  -0.46012  -0.44746
 Alpha virt. eigenvalues --    0.14092   0.15927   0.17114   0.20955   0.21528
 Alpha virt. eigenvalues --    0.21589   0.24217   0.25066   0.29089   0.35832
 Alpha virt. eigenvalues --    0.37696   0.39564   0.39850   0.43495   0.45820

 Mulliken atomic charges:
              1
     1  C   -0.263905
     2  C    0.411178
     3  O   -0.321315
     4  C   -0.057181
     5  O   -0.407982
     6  H    0.108684
     7  H    0.093513
     8  H    0.093498
     9  H    0.109869
    10  H    0.109861
    11  H    0.123779
 Sum of Mulliken atomic charges =   0.00000

 Dipole moment (field-independent basis, Debye):
    X=              0.2287    Y=             -2.0587    Z=              0.0000  Tot=              2.0714
 Quadrupole moment (field-independent basis, Debye-Ang):
   XX=            -23.7483   YY=            -35.5819   ZZ=            -29.2024
   XY=              1.6987   XZ=             -0.0001   YZ=              0.0000

 Normal termination of Gaussian 09 at Thu Mar  3 22:10:04 2016.
