 Gaussian 09, Revision A.01,
 Gaussian 09:  EM64L-G09RevA.01  8-May-2009

 -------------
 # mp2/cc-pVTZ
 -------------

 -------------------------
 Me_formate_E_single_point
 -------------------------
 Symbolic Z-matrix:
 Charge =  0 Multiplicity = 1

                         Standard orientation:
 ---------------------------------------------------------------------
 Center     Atomic      Atomic             Coordinates (Angstroms)
 Number     Number       Type             X           Y           Z
 ---------------------------------------------------------------------
      1          6           0        1.676375    0.117142    0.000016
      2          8           0        0.379395   -0.505886   -0.000017
      3          6           0       -0.688772    0.316768   -0.000012
      4          8           0       -1.821528   -0.087906    0.000016
      5          1           0       -0.420424    1.390353   -0.000037
      6          1           0        2.396539   -0.700122   -0.000744
      7          1           0        1.817423    0.728921   -0.896940
      8          1           0        1.817912    0.727726    0.897708
 ---------------------------------------------------------------------

 SCF Done:  E(RHF) =  -227.866429150     A.U. after   13 cycles
 E2 =    -0.8009515681D+00 EUMP2 =    -0.22866738071765D+03

 The electronic state is 1-A.
 Alpha  occ. eigenvalues --  -20.61291 -20.55217 -11.38593 -11.30972  -1.45985
 Alpha  occ. eigenvalues --   -1.36887  -0.98484  -0.84735  -0.72724  -0.67870
 Alpha  occ. eigenvalues --   -0.67821  -0.60102  -0.56678  -0.54369  -0.46339
 Alpha  occ. eigenvalues --   -0.45795
 Alpha virt. eigenvalues --    0.12749   0.14376   0.17648   0.20016   0.22442
 Alpha virt. eigenvalues --    0.22920   0.31275   0.36985   0.37372   0.44542
 Alpha virt. eigenvalues --    0.45163   0.50152   0.51854   0.53315   0.59234

 Mulliken atomic charges:
              1
     1  C   -0.063185
     2  O   -0.266627
     3  C    0.343098
     4  O   -0.361441
     5  H    0.055536
     6  H    0.123417
     7  H    0.084579
     8  H    0.084622
 Sum of Mulliken atomic charges =   0.00000

 Dipole moment (field-independent basis, Debye):
    X=              4.1371    Y=              2.2736    Z=             -0.0001  Tot=              4.7206
 Quadrupole moment (field-independent basis, Debye-Ang):
   XX=            -26.4566   YY=            -23.2172   ZZ=            -22.9646
   XY=             -0.7561   XZ=             -0.0001   YZ=              0.0000

 Normal termination of Gaussian 09 at Thu Mar  3 22:10:45 2016.
