 Gaussian 09, Revision A.01,
 Gaussian 09:  EM64L-G09RevA.01  8-May-2009

 -------------
 # mp2/cc-pVTZ
 -------------

 -------------------------
 Me_formate_Z_single_point
 -------------------------
 Symbolic Z-matrix:
 Charge =  0 Multiplicity = 1

                         Standard orientation:
 ---------------------------------------------------------------------
 Center     Atomic      Atomic             Coordinates (Angstroms)
 Number     Number       Type             X           Y           Z
 ---------------------------------------------------------------------
      1          6           0        1.376814   -0.402438   -0.000007
      2          8           0        0.477578    0.727826    0.000007
      3          6           0       -0.833112    0.436733   -0.000015
      4          8           0       -1.309722   -0.674514    0.000007
      5          1           0       -1.413127    1.370503    0.000017
      6          1           0        2.378652    0.024834   -0.000132
      7          1           0        1.214818   -1.013731    0.891020
      8          1           0        1.214597   -1.013882   -0.890883
 ---------------------------------------------------------------------

 SCF Done:  E(RHF) =  -227.875075233     A.U. after   13 cycles
 E2 =    -0.8008918852D+00 EUMP2 =    -0.22867596711863D+03

 The electronic state is 1-A.
 Alpha  occ. eigenvalues --  -20.61276 -20.55421 -11.38445 -11.29377  -1.46206
 Alpha  occ. eigenvalues --   -1.36438  -0.98816  -0.81943  -0.73482  -0.67735
 Alpha  occ. eigenvalues --   -0.67260  -0.59523  -0.55281  -0.53635  -0.46782
 Alpha  occ. eigenvalues --   -0.46307
 Alpha virt. eigenvalues --    0.14829   0.16296   0.17116   0.20556   0.22554
 Alpha virt. eigenvalues --    0.23804   0.31490   0.37587   0.37987   0.42951
 Alpha virt. eigenvalues --    0.44598   0.52378   0.54872   0.56836   0.59986

 Mulliken atomic charges:
              1
     1  C   -0.046984
     2  O   -0.303040
     3  C    0.338820
     4  O   -0.402154
     5  H    0.111011
     6  H    0.111188
     7  H    0.095576
     8  H    0.095584
 Sum of Mulliken atomic charges =   0.00000

 Dipole moment (field-independent basis, Debye):
    X=              1.7363    Y=              1.1238    Z=             -0.0001  Tot=              2.0682
 Quadrupole moment (field-independent basis, Debye-Ang):
   XX=            -23.1726   YY=            -24.4029   ZZ=            -22.9596
   XY=             -5.3141   XZ=              0.0000   YZ=              0.0000

 Normal termination of Gaussian 09 at Thu Mar  3 22:12:07 2016.
