 Gaussian 09, Revision A.01,
 Gaussian 09:  EM64L-G09RevA.01  8-May-2009

 -------------
 # mp2/cc-pVTZ
 -------------

 ----------------------------
 Me_formate_E_lp_single_point
 ----------------------------
 Symbolic Z-matrix:
 Charge =  0 Multiplicity = 1

                         Standard orientation:
 ---------------------------------------------------------------------
 Center     Atomic      Atomic             Coordinates (Angstroms)
 Number     Number       Type             X           Y           Z
 ---------------------------------------------------------------------
      1          6           0        1.676452    0.117125    0.000024
      2          8           0        0.379184   -0.505731   -0.000021
      3          6           0       -0.688698    0.316916   -0.000076
      4          8           0       -1.821247   -0.088038    0.000042
      5          1           0        2.395792   -0.700819   -0.000008
      6          1           0        1.817190    0.728126   -0.897431
      7          1           0        1.817146    0.728048    0.897539
      8          1           0       -0.420156    1.390546    0.000043
 ---------------------------------------------------------------------

 SCF Done:  E(RHF) =  -227.866448280     A.U. after   13 cycles
 E2 =    -0.8009337587D+00 EUMP2 =    -0.22866738203886D+03

 The electronic state is 1-A.
 Alpha  occ. eigenvalues --  -20.61283 -20.55209 -11.38585 -11.30973  -1.45989
 Alpha  occ. eigenvalues --   -1.36884  -0.98487  -0.84730  -0.72718  -0.67875
 Alpha  occ. eigenvalues --   -0.67820  -0.60101  -0.56685  -0.54367  -0.46336
 Alpha  occ. eigenvalues --   -0.45792
 Alpha virt. eigenvalues --    0.12749   0.14379   0.17648   0.20014   0.22444
 Alpha virt. eigenvalues --    0.22915   0.31273   0.36980   0.37370   0.44542
 Alpha virt. eigenvalues --    0.45148   0.50159   0.51846   0.53334   0.59234

 Mulliken atomic charges:
              1
     1  C   -0.063250
     2  O   -0.266596
     3  C    0.343009
     4  O   -0.361465
     5  H    0.123495
     6  H    0.084690
     7  H    0.084693
     8  H    0.055424
 Sum of Mulliken atomic charges =   0.00000

 Dipole moment (field-independent basis, Debye):
    X=              4.1385    Y=              2.2737    Z=             -0.0002  Tot=              4.7219
 Quadrupole moment (field-independent basis, Debye-Ang):
   XX=            -26.4574   YY=            -23.2154   ZZ=            -22.9626
   XY=             -0.7578   XZ=              0.0003   YZ=              0.0000

 Normal termination of Gaussian 09 at Thu Mar  3 22:11:26 2016.
