 Gaussian 09, Revision A.01,
 Gaussian 09:  EM64L-G09RevA.01  8-May-2009

 -------------
 # mp2/cc-pVTZ
 -------------

 ----------------------------
 Me_formate_Z_lp_single_point
 ----------------------------
 Symbolic Z-matrix:
 Charge =  0 Multiplicity = 1

                         Standard orientation:
 ---------------------------------------------------------------------
 Center     Atomic      Atomic             Coordinates (Angstroms)
 Number     Number       Type             X           Y           Z
 ---------------------------------------------------------------------
      1          6           0        1.377158   -0.402479    0.000000
      2          8           0        0.477331    0.727661    0.000003
      3          6           0       -0.832952    0.436600   -0.000006
      4          8           0       -1.310134   -0.674394    0.000000
      5          1           0        2.378328    0.026087   -0.000120
      6          1           0        1.215794   -1.013797    0.891116
      7          1           0        1.215647   -1.013905   -0.891004
      8          1           0       -1.412584    1.370756    0.000015
 ---------------------------------------------------------------------

 SCF Done:  E(RHF) =  -227.875088261     A.U. after   13 cycles
 E2 =    -0.8008761714D+00 EUMP2 =    -0.22867596443264D+03

 The electronic state is 1-A.
 Alpha  occ. eigenvalues --  -20.61281 -20.55414 -11.38438 -11.29384  -1.46212
 Alpha  occ. eigenvalues --   -1.36438  -0.98827  -0.81939  -0.73483  -0.67733
 Alpha  occ. eigenvalues --   -0.67265  -0.59516  -0.55290  -0.53641  -0.46784
 Alpha  occ. eigenvalues --   -0.46301
 Alpha virt. eigenvalues --    0.14825   0.16306   0.17121   0.20554   0.22549
 Alpha virt. eigenvalues --    0.23798   0.31495   0.37590   0.37987   0.42922
 Alpha virt. eigenvalues --    0.44599   0.52367   0.54886   0.56834   0.59985

 Mulliken atomic charges:
              1
     1  C   -0.047042
     2  O   -0.302858
     3  C    0.338794
     4  O   -0.402256
     5  H    0.111254
     6  H    0.095662
     7  H    0.095668
     8  H    0.110779
 Sum of Mulliken atomic charges =   0.00000

 Dipole moment (field-independent basis, Debye):
    X=              1.7421    Y=              1.1231    Z=              0.0000  Tot=              2.0728
 Quadrupole moment (field-independent basis, Debye-Ang):
   XX=            -23.1767   YY=            -24.4017   ZZ=            -22.9580
   XY=             -5.3125   XZ=             -0.0001   YZ=              0.0000

 Normal termination of Gaussian 09 at Thu Mar  3 22:12:48 2016.
