 Gaussian 09, Revision A.01,
 Gaussian 09:  EM64L-G09RevA.01  8-May-2009

 -------------
 # mp2/cc-pVTZ
 -------------

 ---------------------------------
 me_vinyl_ether_s_cis_single_point
 ---------------------------------
 Symbolic Z-matrix:
 Charge =  0 Multiplicity = 1

                         Standard orientation:
 ---------------------------------------------------------------------
 Center     Atomic      Atomic             Coordinates (Angstroms)
 Number     Number       Type             X           Y           Z
 ---------------------------------------------------------------------
      1          6           0       -1.454521    0.570657    0.000000
      2          6           0       -0.745671   -0.566373    0.000000
      3          8           0        0.604924   -0.713682    0.000000
      4          6           0        1.387869    0.475358    0.000000
      5          1           0       -2.536234    0.509908    0.000000
      6          1           0       -1.009532    1.558238    0.000000
      7          1           0       -1.220452   -1.543119    0.000000
      8          1           0        2.429479    0.152654   -0.000018
      9          1           0        1.185627    1.076968   -0.895072
     10          1           0        1.185653    1.076951    0.895090
 ---------------------------------------------------------------------

 SCF Done:  E(RHF) =  -191.990124306     A.U. after   12 cycles
 E2 =    -0.7420353146D+00 EUMP2 =    -0.19273215962056D+03

 The electronic state is 1-A.
 Alpha  occ. eigenvalues --  -20.58395 -11.29456 -11.28201 -11.21177  -1.40471
 Alpha  occ. eigenvalues --   -1.02655  -0.94917  -0.77515  -0.69411  -0.65154
 Alpha  occ. eigenvalues --   -0.64832  -0.57181  -0.53217  -0.50099  -0.50061
 Alpha  occ. eigenvalues --   -0.34379
 Alpha virt. eigenvalues --    0.14692   0.17166   0.18035   0.18905   0.21471
 Alpha virt. eigenvalues --    0.22343   0.23476   0.25789   0.34220   0.36947
 Alpha virt. eigenvalues --    0.38767   0.45660   0.45994   0.48026   0.51896

 Mulliken atomic charges:
              1
     1  C   -0.429734
     2  C    0.064420
     3  O   -0.301727
     4  C   -0.065177
     5  H    0.147465
     6  H    0.142517
     7  H    0.170451
     8  H    0.117628
     9  H    0.077079
    10  H    0.077079
 Sum of Mulliken atomic charges =   0.00000

 Dipole moment (field-independent basis, Debye):
    X=              0.3427    Y=              0.9138    Z=              0.0000  Tot=              0.9759
 Quadrupole moment (field-independent basis, Debye-Ang):
   XX=            -22.8695   YY=            -24.3982   ZZ=            -27.3435
   XY=              2.4727   XZ=              0.0000   YZ=              0.0000

 Normal termination of Gaussian 09 at Thu Mar  3 22:19:09 2016.
