 Gaussian 09, Revision A.01,
 Gaussian 09:  EM64L-G09RevA.01  8-May-2009

 -------------
 # mp2/cc-pVTZ
 -------------

 -----------------------------
 me_vinyl_ether_g_single_point
 -----------------------------
 Symbolic Z-matrix:
 Charge =  0 Multiplicity = 1

                         Standard orientation:
 ---------------------------------------------------------------------
 Center     Atomic      Atomic             Coordinates (Angstroms)
 Number     Number       Type             X           Y           Z
 ---------------------------------------------------------------------
      1          6           0       -1.880295   -0.073644    0.030002
      2          6           0       -0.616392    0.354086   -0.027660
      3          8           0        0.445516   -0.500921   -0.052602
      4          6           0        1.730044    0.108344    0.035137
      5          1           0       -2.690292    0.645242    0.026613
      6          1           0       -2.120221   -1.130486    0.074349
      7          1           0       -0.362731    1.413777   -0.071430
      8          1           0        2.461364   -0.695930   -0.055772
      9          1           0        1.883252    0.829356   -0.778607
     10          1           0        1.864363    0.612694    1.000787
 ---------------------------------------------------------------------

 SCF Done:  E(RHF) =  -191.987539719     A.U. after   12 cycles
 E2 =    -0.7400483979D+00 EUMP2 =    -0.19272758811663D+03

 The electronic state is 1-A.
 Alpha  occ. eigenvalues --  -20.57841 -11.29070 -11.28579 -11.20871  -1.40028
 Alpha  occ. eigenvalues --   -1.03226  -0.92916  -0.79114  -0.68340  -0.64816
 Alpha  occ. eigenvalues --   -0.64680  -0.56032  -0.54721  -0.50427  -0.49451
 Alpha  occ. eigenvalues --   -0.33728
 Alpha virt. eigenvalues --    0.14242   0.16417   0.17404   0.19378   0.21399
 Alpha virt. eigenvalues --    0.23049   0.23521   0.24877   0.34937   0.37179
 Alpha virt. eigenvalues --    0.38721   0.43288   0.45852   0.47914   0.53339

 Mulliken atomic charges:
              1
     1  C   -0.391794
     2  C    0.092720
     3  O   -0.295202
     4  C   -0.060890
     5  H    0.142289
     6  H    0.143035
     7  H    0.116751
     8  H    0.111314
     9  H    0.069162
    10  H    0.072615
 Sum of Mulliken atomic charges =   0.00000

 Dipole moment (field-independent basis, Debye):
    X=              1.2553    Y=              1.3735    Z=              0.0807  Tot=              1.8625
 Quadrupole moment (field-independent basis, Debye-Ang):
   XX=            -21.6592   YY=            -24.5599   ZZ=            -27.3058
   XY=              0.4476   XZ=              0.0134   YZ=             -0.2206

 Normal termination of Gaussian 09 at Thu Mar  3 22:17:59 2016.
