 Gaussian 09, Revision A.01,
 Gaussian 09:  EM64L-G09RevA.01  8-May-2009

 -------------
 # mp2/cc-pVTZ
 -------------

 --------------------------------
 methyl_glycolate_sk_single_point
 --------------------------------
 Symbolic Z-matrix:
 Charge =  0 Multiplicity = 1

                         Standard orientation:
 ---------------------------------------------------------------------
 Center     Atomic      Atomic             Coordinates (Angstroms)
 Number     Number       Type             X           Y           Z
 ---------------------------------------------------------------------
      1          6           0        2.096935   -0.692392   -0.000003
      2          8           0        0.654690   -0.706311    0.000035
      3          6           0        0.062023    0.491916   -0.000001
      4          8           0        0.653489    1.554655   -0.000046
      5          6           0       -1.456823    0.431738    0.000065
      6          8           0       -1.942272   -0.897971   -0.000029
      7          1           0       -1.784186    0.993700    0.886467
      8          1           0       -1.784269    0.993840   -0.886215
      9          1           0       -2.907367   -0.872141   -0.000237
     10          1           0        2.393111   -1.740598    0.000144
     11          1           0        2.471292   -0.182827   -0.890881
     12          1           0        2.471353   -0.182536    0.890678
 ---------------------------------------------------------------------

 SCF Done:  E(RHF) =  -341.809365544     A.U. after   13 cycles
 E2 =    -0.1204659933D+01 EUMP2 =    -0.34301402547706D+03

 The electronic state is 1-A.
 Alpha  occ. eigenvalues --  -20.60443 -20.57188 -20.53978 -11.38191 -11.30423
 Alpha  occ. eigenvalues --  -11.28679  -1.45947  -1.37418  -1.35434  -1.01335
 Alpha  occ. eigenvalues --   -0.94366  -0.77763  -0.71774  -0.69791  -0.68394
 Alpha  occ. eigenvalues --   -0.65694  -0.63715  -0.58810  -0.54112  -0.53645
 Alpha  occ. eigenvalues --   -0.52604  -0.47476  -0.45077  -0.44865
 Alpha virt. eigenvalues --    0.13064   0.15375   0.16608   0.18065   0.21359
 Alpha virt. eigenvalues --    0.21830   0.24101   0.24777   0.30703   0.32017
 Alpha virt. eigenvalues --    0.38150   0.38789   0.43381   0.47889   0.48788

 Mulliken atomic charges:
              1
     1  C   -0.058509
     2  O   -0.276153
     3  C    0.370969
     4  O   -0.430707
     5  C    0.089757
     6  O   -0.379843
     7  H    0.079736
     8  H    0.079740
     9  H    0.223966
    10  H    0.113130
    11  H    0.093953
    12  H    0.093961
 Sum of Mulliken atomic charges =   0.00000

 Dipole moment (field-independent basis, Debye):
    X=             -1.3907    Y=             -0.8377    Z=             -0.0002  Tot=              1.6236
 Quadrupole moment (field-independent basis, Debye-Ang):
   XX=            -22.9696   YY=            -42.1394   ZZ=            -34.3333
   XY=             -5.2279   XZ=              0.0011   YZ=              0.0006

 Normal termination of Gaussian 09 at Thu Mar  3 22:16:50 2016.
