 Gaussian 09, Revision A.01,
 Gaussian 09:  EM64L-G09RevA.01  8-May-2009

 -------------
 # mp2/cc-pVTZ
 -------------

 ---------------------------------
 methyl_glycolate_cis_single_point
 ---------------------------------
 Symbolic Z-matrix:
 Charge =  0 Multiplicity = 1

                         Standard orientation:
 ---------------------------------------------------------------------
 Center     Atomic      Atomic             Coordinates (Angstroms)
 Number     Number       Type             X           Y           Z
 ---------------------------------------------------------------------
      1          6           0       -2.383729   -0.073009   -0.000032
      2          8           0       -1.087745   -0.703806   -0.000018
      3          6           0       -0.023649    0.133926    0.000048
      4          8           0       -0.105304    1.338407    0.000042
      5          6           0        1.256515   -0.686967    0.000053
      6          8           0        2.365213    0.186193   -0.000111
      7          1           0        1.233444   -1.337332    0.887011
      8          1           0        1.233339   -1.337540   -0.886746
      9          1           0        3.173164   -0.341663    0.000133
     10          1           0       -3.104010   -0.890421    0.000023
     11          1           0       -2.504034    0.548506    0.890532
     12          1           0       -2.504044    0.548406   -0.890666
 ---------------------------------------------------------------------

 SCF Done:  E(RHF) =  -341.809700466     A.U. after   13 cycles
 E2 =    -0.1204813390D+01 EUMP2 =    -0.34301451385552D+03

 The electronic state is 1-A.
 Alpha  occ. eigenvalues --  -20.60431 -20.56940 -20.54363 -11.37986 -11.30478
 Alpha  occ. eigenvalues --  -11.28899  -1.45727  -1.37625  -1.35365  -1.02032
 Alpha  occ. eigenvalues --   -0.93566  -0.77551  -0.72735  -0.68567  -0.68511
 Alpha  occ. eigenvalues --   -0.66237  -0.63736  -0.58708  -0.54303  -0.54037
 Alpha  occ. eigenvalues --   -0.52677  -0.46659  -0.46062  -0.44725
 Alpha virt. eigenvalues --    0.12942   0.15371   0.16988   0.17846   0.20817
 Alpha virt. eigenvalues --    0.21231   0.23905   0.24850   0.30504   0.31768
 Alpha virt. eigenvalues --    0.38005   0.38529   0.43209   0.46922   0.47386

 Mulliken atomic charges:
              1
     1  C   -0.061059
     2  O   -0.330752
     3  C    0.384874
     4  O   -0.379637
     5  C    0.082242
     6  O   -0.367008
     7  H    0.074589
     8  H    0.074597
     9  H    0.220482
    10  H    0.110003
    11  H    0.095835
    12  H    0.095834
 Sum of Mulliken atomic charges =   0.00000

 Dipole moment (field-independent basis, Debye):
    X=             -0.3283    Y=             -3.5272    Z=              0.0006  Tot=              3.5425
 Quadrupole moment (field-independent basis, Debye-Ang):
   XX=            -24.9637   YY=            -39.8314   ZZ=            -34.3692
   XY=             -5.7348   XZ=              0.0018   YZ=             -0.0003

 Normal termination of Gaussian 09 at Thu Mar  3 22:14:48 2016.
