 Gaussian 09, Revision A.01,
 Gaussian 09:  EM64L-G09RevA.01  8-May-2009

 -------------
 # mp2/cc-pVTZ
 -------------

 -----------------------------
 O-Me glycoside-g_single_point
 -----------------------------
 Symbolic Z-matrix:
 Charge =  0 Multiplicity = 1

                         Standard orientation:
 ---------------------------------------------------------------------
 Center     Atomic      Atomic             Coordinates (Angstroms)
 Number     Number       Type             X           Y           Z
 ---------------------------------------------------------------------
      1          6           0       -1.332592   -0.869983    0.254289
      2          6           0        0.024280   -1.517671   -0.013465
      3          6           0        1.136791   -0.468729    0.081770
      4          6           0       -1.544682    0.321321   -0.677689
      5          8           0        0.844660    0.630243   -0.812205
      6          6           0       -0.374186    1.314375   -0.540885
      7          8           0       -0.412183    1.889188    0.731061
      8          6           0        0.496054    2.973306    0.919228
      9          8           0        0.302412   -2.544002    0.930865
     10          8           0       -2.322250   -1.877522    0.049430
     11          8           0       -2.816172    0.876530   -0.355023
     12          1           0       -0.474231   -3.121092    0.967406
     13          1           0       -3.188936   -1.471152    0.191616
     14          1           0       -3.103091    1.474908   -1.056365
     15          1           0       -1.363656   -0.517500    1.294058
     16          1           0        0.010485   -1.935029   -1.033368
     17          1           0        1.196845   -0.094522    1.111094
     18          1           0       -1.539307   -0.042550   -1.714779
     19          1           0       -0.422408    2.093725   -1.317416
     20          1           0        0.281284    3.388417    1.905180
     21          1           0        1.537899    2.636230    0.882660
     22          1           0        0.339087    3.749081    0.156275
     23          6           0        2.500334   -0.999923   -0.342212
     24          8           0        3.508493   -0.001016   -0.248501
     25          1           0        3.222436    0.744104   -0.795168
     26          1           0        2.434228   -1.395415   -1.367320
     27          1           0        2.793690   -1.812742    0.324896
 ---------------------------------------------------------------------

 SCF Done:  E(RHF) =  -722.640087445     A.U. after   12 cycles
 E2 =    -0.2613548629D+01 EUMP2 =    -0.72525363607482D+03

 The electronic state is 1-A.
 Alpha  occ. eigenvalues --  -20.57679 -20.57550 -20.57371 -20.56448 -20.55873
 Alpha  occ. eigenvalues --  -20.54803 -11.34902 -11.29816 -11.28829 -11.28729
 Alpha  occ. eigenvalues --  -11.28592 -11.28257 -11.27153  -1.43134  -1.38704
 Alpha  occ. eigenvalues --   -1.37402  -1.36074  -1.35048  -1.34278  -1.06241
 Alpha  occ. eigenvalues --   -1.04610  -0.95818  -0.91645  -0.86713  -0.83897
 Alpha  occ. eigenvalues --   -0.78569  -0.73995  -0.72335  -0.70833  -0.69749
 Alpha  occ. eigenvalues --   -0.67607  -0.66649  -0.65575  -0.63727  -0.62462
 Alpha  occ. eigenvalues --   -0.60530  -0.59346  -0.58564  -0.57736  -0.56503
 Alpha  occ. eigenvalues --   -0.55561  -0.53783  -0.53492  -0.51694  -0.50094
 Alpha  occ. eigenvalues --   -0.48629  -0.46552  -0.45893  -0.45075  -0.44609
 Alpha  occ. eigenvalues --   -0.43176  -0.42987
 Alpha virt. eigenvalues --    0.12157   0.14114   0.15305   0.16205   0.18030
 Alpha virt. eigenvalues --    0.19207   0.19336   0.19826   0.20771   0.21781
 Alpha virt. eigenvalues --    0.22220   0.24647   0.25482   0.25753   0.28148

 Mulliken atomic charges:
              1
     1  C    0.110115
     2  C    0.112649
     3  C    0.098089
     4  C    0.094243
     5  O   -0.460754
     6  C    0.310513
     7  O   -0.377181
     8  C   -0.086477
     9  O   -0.440191
    10  O   -0.451100
    11  O   -0.420070
    12  H    0.245225
    13  H    0.243847
    14  H    0.222854
    15  H    0.108626
    16  H    0.084496
    17  H    0.111293
    18  H    0.093415
    19  H    0.085313
    20  H    0.115634
    21  H    0.087201
    22  H    0.065762
    23  C    0.071108
    24  O   -0.432309
    25  H    0.233901
    26  H    0.060831
    27  H    0.112964
 Sum of Mulliken atomic charges =   0.00000

 Dipole moment (field-independent basis, Debye):
    X=             -2.6173    Y=              2.5462    Z=             -2.1249  Tot=              4.2247
 Quadrupole moment (field-independent basis, Debye-Ang):
   XX=            -84.9062   YY=            -71.3436   ZZ=            -74.9805
   XY=              1.3492   XZ=              2.1005   YZ=             -2.0494

 Normal termination of Gaussian 09 at Mon Dec  4 22:16:07 2017.
