 Gaussian 09, Revision A.01,
 Gaussian 09:  EM64L-G09RevA.01  8-May-2009

 -------------
 # mp2/cc-pVTZ
 -------------

 -----------------------------
 O-Me glycoside-a_single_point
 -----------------------------
 Symbolic Z-matrix:
 Charge =  0 Multiplicity = 1

                         Standard orientation:
 ---------------------------------------------------------------------
 Center     Atomic      Atomic             Coordinates (Angstroms)
 Number     Number       Type             X           Y           Z
 ---------------------------------------------------------------------
      1          6           0       -1.332565   -0.870027    0.254277
      2          6           0        0.024343   -1.517674   -0.013421
      3          6           0        1.136827   -0.468703    0.081819
      4          6           0       -1.544665    0.321242   -0.677738
      5          8           0        0.844670    0.630308   -0.812113
      6          6           0       -0.374190    1.314350   -0.540881
      7          8           0       -0.412300    1.889184    0.731074
      8          6           0        0.495830    2.973378    0.919255
      9          8           0        0.302479   -2.543948    0.930958
     10          8           0       -2.322145   -1.877631    0.049404
     11          8           0       -2.816189    0.876369   -0.355131
     12          1           0       -3.102926    1.475089   -1.056253
     13          1           0       -0.474022   -3.121237    0.967292
     14          1           0       -3.188868   -1.471302    0.191449
     15          1           0       -1.363677   -0.517521    1.294039
     16          1           0        0.010558   -1.935064   -1.033315
     17          1           0        1.196864   -0.094516    1.111152
     18          1           0       -1.539223   -0.042630   -1.714834
     19          1           0       -0.422432    2.093702   -1.317419
     20          1           0        0.281324    3.388166    1.905402
     21          1           0        1.537721    2.636477    0.882232
     22          1           0        0.338492    3.749348    0.156570
     23          6           0        2.500367   -0.999852   -0.342220
     24          8           0        3.508503   -0.000906   -0.248596
     25          1           0        3.222349    0.744224   -0.795193
     26          1           0        2.434222   -1.395363   -1.367321
     27          1           0        2.793792   -1.812648    0.324890
 ---------------------------------------------------------------------

 SCF Done:  E(RHF) =  -722.640089527     A.U. after   12 cycles
 E2 =    -0.2613546020D+01 EUMP2 =    -0.72525363554741D+03

 The electronic state is 1-A.
 Alpha  occ. eigenvalues --  -20.57679 -20.57550 -20.57371 -20.56448 -20.55873
 Alpha  occ. eigenvalues --  -20.54803 -11.34903 -11.29816 -11.28829 -11.28729
 Alpha  occ. eigenvalues --  -11.28593 -11.28257 -11.27154  -1.43135  -1.38704
 Alpha  occ. eigenvalues --   -1.37402  -1.36075  -1.35048  -1.34279  -1.06241
 Alpha  occ. eigenvalues --   -1.04610  -0.95817  -0.91644  -0.86713  -0.83897
 Alpha  occ. eigenvalues --   -0.78569  -0.73996  -0.72335  -0.70833  -0.69749
 Alpha  occ. eigenvalues --   -0.67607  -0.66649  -0.65575  -0.63726  -0.62462
 Alpha  occ. eigenvalues --   -0.60530  -0.59346  -0.58564  -0.57736  -0.56504
 Alpha  occ. eigenvalues --   -0.55561  -0.53783  -0.53492  -0.51694  -0.50094
 Alpha  occ. eigenvalues --   -0.48629  -0.46552  -0.45893  -0.45075  -0.44609
 Alpha  occ. eigenvalues --   -0.43176  -0.42987
 Alpha virt. eigenvalues --    0.12157   0.14114   0.15305   0.16205   0.18030
 Alpha virt. eigenvalues --    0.19207   0.19336   0.19825   0.20771   0.21781
 Alpha virt. eigenvalues --    0.22220   0.24647   0.25482   0.25752   0.28148

 Mulliken atomic charges:
              1
     1  C    0.110126
     2  C    0.112638
     3  C    0.098091
     4  C    0.094247
     5  O   -0.460741
     6  C    0.310508
     7  O   -0.377186
     8  C   -0.086490
     9  O   -0.440182
    10  O   -0.451098
    11  O   -0.420056
    12  H    0.222844
    13  H    0.245222
    14  H    0.243846
    15  H    0.108625
    16  H    0.084494
    17  H    0.111298
    18  H    0.093415
    19  H    0.085303
    20  H    0.115631
    21  H    0.087194
    22  H    0.065773
    23  C    0.071113
    24  O   -0.432309
    25  H    0.233902
    26  H    0.060829
    27  H    0.112962
 Sum of Mulliken atomic charges =   0.00000

 Dipole moment (field-independent basis, Debye):
    X=             -2.6169    Y=              2.5460    Z=             -2.1249  Tot=              4.2244
 Quadrupole moment (field-independent basis, Debye-Ang):
   XX=            -84.9096   YY=            -71.3399   ZZ=            -74.9819
   XY=              1.3468   XZ=              2.1005   YZ=             -2.0483

 Normal termination of Gaussian 09 at Mon Dec  4 21:06:55 2017.
