 Gaussian 09, Revision A.01,
 Gaussian 09:  EM64L-G09RevA.01  8-May-2009

 -------------
 # mp2/cc-pVTZ
 -------------

 -------------------------------
 propen_3_ol_skew_a_single_point
 -------------------------------
 Symbolic Z-matrix:
 Charge =  0 Multiplicity = 1

                         Standard orientation:
 ---------------------------------------------------------------------
 Center     Atomic      Atomic             Coordinates (Angstroms)
 Number     Number       Type             X           Y           Z
 ---------------------------------------------------------------------
      1          6           0       -1.841194    0.076442   -0.217703
      2          6           0       -0.671245   -0.361139    0.253578
      3          6           0        0.586229    0.454755    0.286694
      4          8           0        1.632864   -0.300472   -0.336923
      5          1           0       -2.732657   -0.543124   -0.192043
      6          1           0       -1.948479    1.071503   -0.644069
      7          1           0       -0.584028   -1.367183    0.662086
      8          1           0        0.429579    1.413246   -0.228961
      9          1           0        0.852710    0.671283    1.333669
     10          1           0        2.477226    0.137706   -0.170710
 ---------------------------------------------------------------------

 SCF Done:  E(RHF) =  -191.994964274     A.U. after   12 cycles
 E2 =    -0.7417520520D+00 EUMP2 =    -0.19273671632639D+03

 The electronic state is 1-A.
 Alpha  occ. eigenvalues --  -20.55499 -11.28370 -11.23450 -11.22636  -1.35407
 Alpha  occ. eigenvalues --   -1.05948  -0.91651  -0.76496  -0.68995  -0.65365
 Alpha  occ. eigenvalues --   -0.61201  -0.56585  -0.53630  -0.48577  -0.45399
 Alpha  occ. eigenvalues --   -0.36805
 Alpha virt. eigenvalues --    0.13300   0.15687   0.17356   0.17957   0.20268
 Alpha virt. eigenvalues --    0.22470   0.24203   0.30940   0.32022   0.40332
 Alpha virt. eigenvalues --    0.41955   0.45246   0.48227   0.48903   0.53334

 Mulliken atomic charges:
              1
     1  C   -0.328572
     2  C   -0.124905
     3  C    0.102494
     4  O   -0.410321
     5  H    0.141425
     6  H    0.133667
     7  H    0.153263
     8  H    0.057116
     9  H    0.055559
    10  H    0.220274
 Sum of Mulliken atomic charges =   0.00000

 Dipole moment (field-independent basis, Debye):
    X=              0.3586    Y=              1.4032    Z=              0.9636  Tot=              1.7396
 Quadrupole moment (field-independent basis, Debye-Ang):
   XX=            -20.9364   YY=            -24.7060   ZZ=            -27.0009
   XY=              2.8077   XZ=              2.0086   YZ=             -1.4337

 Normal termination of Gaussian 09 at Thu Mar  3 22:25:31 2016.
