 Gaussian 09, Revision A.01,
 Gaussian 09:  EM64L-G09RevA.01  8-May-2009

 -------------
 # mp2/cc-pVTZ
 -------------

 --------------------------
 propanal_skew_single_point
 --------------------------
 Symbolic Z-matrix:
 Charge =  0 Multiplicity = 1

                         Standard orientation:
 ---------------------------------------------------------------------
 Center     Atomic      Atomic             Coordinates (Angstroms)
 Number     Number       Type             X           Y           Z
 ---------------------------------------------------------------------
      1          6           0        1.699691   -0.277678   -0.179650
      2          6           0        0.471422    0.586093    0.154964
      3          6           0       -0.783283   -0.242165    0.293781
      4          8           0       -1.825229   -0.031804   -0.292324
      5          1           0       -0.704300   -1.103736    0.996164
      6          1           0        0.298960    1.359759   -0.599169
      7          1           0        0.633292    1.087016    1.121410
      8          1           0        2.605612    0.334912   -0.200360
      9          1           0        1.848569   -1.067177    0.565571
     10          1           0        1.592716   -0.753838   -1.159589
 ---------------------------------------------------------------------

 SCF Done:  E(RHF) =  -192.020825954     A.U. after   12 cycles
 E2 =    -0.7421098608D+00 EUMP2 =    -0.19276293581476D+03

 The electronic state is 1-A.
 Alpha  occ. eigenvalues --  -20.55566 -11.33202 -11.24655 -11.23930  -1.38732
 Alpha  occ. eigenvalues --   -1.06575  -0.90413  -0.79200  -0.66878  -0.63760
 Alpha  occ. eigenvalues --   -0.61409  -0.56279  -0.54160  -0.51608  -0.49179
 Alpha  occ. eigenvalues --   -0.41889
 Alpha virt. eigenvalues --    0.12318   0.14832   0.16832   0.17768   0.20595
 Alpha virt. eigenvalues --    0.21859   0.22711   0.29390   0.31403   0.35244
 Alpha virt. eigenvalues --    0.37842   0.38700   0.43418   0.47102   0.49707

 Mulliken atomic charges:
              1
     1  C   -0.294463
     2  C   -0.153761
     3  C    0.206288
     4  O   -0.346043
     5  H    0.070885
     6  H    0.116346
     7  H    0.096925
     8  H    0.109234
     9  H    0.090838
    10  H    0.103751
 Sum of Mulliken atomic charges =   0.00000

 Dipole moment (field-independent basis, Debye):
    X=              3.0581    Y=             -0.1796    Z=              1.2477  Tot=              3.3077
 Quadrupole moment (field-independent basis, Debye-Ang):
   XX=            -31.2914   YY=            -24.4328   ZZ=            -24.4623
   XY=              0.4811   XZ=             -1.7846   YZ=             -0.2159

 Normal termination of Gaussian 09 at Thu Mar  3 22:24:23 2016.
