 Gaussian 09, Revision A.01,
 Gaussian 09:  EM64L-G09RevA.01  8-May-2009

 -------------
 # mp2/cc-pVTZ
 -------------

 ------------------------------
 propen_3_ol_syn_a_single_point
 ------------------------------
 Symbolic Z-matrix:
 Charge =  0 Multiplicity = 1

                         Standard orientation:
 ---------------------------------------------------------------------
 Center     Atomic      Atomic             Coordinates (Angstroms)
 Number     Number       Type             X           Y           Z
 ---------------------------------------------------------------------
      1          6           0       -1.516827   -0.531791    0.000014
      2          6           0       -0.782545    0.582526   -0.000018
      3          6           0        0.717028    0.634917    0.000020
      4          8           0        1.259846   -0.680820   -0.000043
      5          1           0       -2.601690   -0.486586    0.000000
      6          1           0       -1.051346   -1.511873    0.000057
      7          1           0       -1.266852    1.558971   -0.000060
      8          1           0        1.056224    1.197538   -0.885925
      9          1           0        1.056183    1.197436    0.886047
     10          1           0        2.222776   -0.622837    0.000126
 ---------------------------------------------------------------------

 SCF Done:  E(RHF) =  -191.995499364     A.U. after   12 cycles
 E2 =    -0.7421093394D+00 EUMP2 =    -0.19273760870330D+03

 The electronic state is 1-A.
 Alpha  occ. eigenvalues --  -20.55716 -11.28486 -11.23084 -11.21548  -1.35932
 Alpha  occ. eigenvalues --   -1.05237  -0.92032  -0.75112  -0.70469  -0.63163
 Alpha  occ. eigenvalues --   -0.61104  -0.59006  -0.51482  -0.48956  -0.45932
 Alpha  occ. eigenvalues --   -0.35657
 Alpha virt. eigenvalues --    0.13426   0.16561   0.17188   0.18497   0.21224
 Alpha virt. eigenvalues --    0.21362   0.23713   0.31004   0.33701   0.37873
 Alpha virt. eigenvalues --    0.42389   0.45915   0.48243   0.49271   0.52934

 Mulliken atomic charges:
              1
     1  C   -0.328704
     2  C   -0.167460
     3  C    0.127966
     4  O   -0.398265
     5  H    0.137496
     6  H    0.156758
     7  H    0.147998
     8  H    0.053331
     9  H    0.053329
    10  H    0.217550
 Sum of Mulliken atomic charges =   0.00000

 Dipole moment (field-independent basis, Debye):
    X=              1.2063    Y=              1.4310    Z=              0.0004  Tot=              1.8716
 Quadrupole moment (field-independent basis, Debye-Ang):
   XX=            -19.5892   YY=            -24.5535   ZZ=            -27.3646
   XY=              0.6894   XZ=              0.0008   YZ=             -0.0004

 Normal termination of Gaussian 09 at Thu Mar  3 22:27:48 2016.
