 Gaussian 09, Revision A.01,
 Gaussian 09:  EM64L-G09RevA.01  8-May-2009

 -------------
 # mp2/cc-pVTZ
 -------------

 ------------------------------
 propanal_eclipsed_single_point
 ------------------------------
 Symbolic Z-matrix:
 Charge =  0 Multiplicity = 1

                         Standard orientation:
 ---------------------------------------------------------------------
 Center     Atomic      Atomic             Coordinates (Angstroms)
 Number     Number       Type             X           Y           Z
 ---------------------------------------------------------------------
      1          6           0       -1.451474   -0.502480   -0.000013
      2          6           0       -0.546783    0.728336    0.000025
      3          6           0        0.932302    0.424666   -0.000024
      4          8           0        1.414240   -0.689566    0.000016
      5          1           0        1.595730    1.318490   -0.000102
      6          1           0       -0.737537    1.373755    0.871412
      7          1           0       -0.737593    1.373853   -0.871275
      8          1           0       -2.504427   -0.205455   -0.000010
      9          1           0       -1.267191   -1.123589   -0.881042
     10          1           0       -1.267176   -1.123653    0.880965
 ---------------------------------------------------------------------

 SCF Done:  E(RHF) =  -192.022371224     A.U. after   12 cycles
 E2 =    -0.7424049887D+00 EUMP2 =    -0.19276477621234D+03

 The electronic state is 1-A.
 Alpha  occ. eigenvalues --  -20.55559 -11.33261 -11.24787 -11.22445  -1.38800
 Alpha  occ. eigenvalues --   -1.05942  -0.91044  -0.77195  -0.67790  -0.63155
 Alpha  occ. eigenvalues --   -0.62613  -0.54175  -0.52739  -0.51961  -0.48952
 Alpha  occ. eigenvalues --   -0.42074
 Alpha virt. eigenvalues --    0.13428   0.14349   0.16234   0.18744   0.19697
 Alpha virt. eigenvalues --    0.21340   0.23824   0.30925   0.32531   0.35145
 Alpha virt. eigenvalues --    0.38915   0.39041   0.46736   0.46853   0.48426

 Mulliken atomic charges:
              1
     1  C   -0.271366
     2  C   -0.160069
     3  C    0.175972
     4  O   -0.348994
     5  H    0.096136
     6  H    0.101130
     7  H    0.101130
     8  H    0.098761
     9  H    0.103648
    10  H    0.103653
 Sum of Mulliken atomic charges =   0.00000

 Dipole moment (field-independent basis, Debye):
    X=             -1.7190    Y=              2.5544    Z=             -0.0001  Tot=              3.0789
 Quadrupole moment (field-independent basis, Debye-Ang):
   XX=            -27.7416   YY=            -25.3934   ZZ=            -24.4465
   XY=              3.1596   XZ=             -0.0001   YZ=              0.0000

 Normal termination of Gaussian 09 at Thu Mar  3 22:23:17 2016.
