 Gaussian 09, Revision A.01,
 Gaussian 09:  EM64L-G09RevA.01  8-May-2009

 -------------
 # mp2/cc-pVTZ
 -------------

 ------------------------------------
 propen_3_ol_skew_g_plus_single_point
 ------------------------------------
 Symbolic Z-matrix:
 Charge =  0 Multiplicity = 1

                         Standard orientation:
 ---------------------------------------------------------------------
 Center     Atomic      Atomic             Coordinates (Angstroms)
 Number     Number       Type             X           Y           Z
 ---------------------------------------------------------------------
      1          6           0       -1.808023    0.030618   -0.256030
      2          6           0       -0.665132   -0.297937    0.354406
      3          6           0        0.602947    0.503915    0.261039
      4          8           0        1.700354   -0.271286   -0.235810
      5          1           0       -2.703346   -0.577001   -0.161239
      6          1           0       -1.888834    0.928524   -0.865701
      7          1           0       -0.606212   -1.204922    0.955969
      8          1           0        0.441591    1.400294   -0.355717
      9          1           0        0.923963    0.834838    1.254684
     10          1           0        1.451259   -0.631017   -1.098007
 ---------------------------------------------------------------------

 SCF Done:  E(RHF) =  -191.996648050     A.U. after   12 cycles
 E2 =    -0.7422618212D+00 EUMP2 =    -0.19273890987091D+03

 The electronic state is 1-A.
 Alpha  occ. eigenvalues --  -20.55472 -11.28250 -11.23980 -11.23463  -1.35389
 Alpha  occ. eigenvalues --   -1.06295  -0.91942  -0.77532  -0.69654  -0.62111
 Alpha  occ. eigenvalues --   -0.61286  -0.59989  -0.53082  -0.49330  -0.45139
 Alpha  occ. eigenvalues --   -0.37575
 Alpha virt. eigenvalues --    0.13829   0.15237   0.17166   0.18090   0.18575
 Alpha virt. eigenvalues --    0.22474   0.24127   0.30576   0.32032   0.40699
 Alpha virt. eigenvalues --    0.41413   0.44799   0.47432   0.48472   0.52052

 Mulliken atomic charges:
              1
     1  C   -0.332600
     2  C   -0.165831
     3  C    0.106423
     4  O   -0.419213
     5  H    0.146356
     6  H    0.139341
     7  H    0.160694
     8  H    0.062303
     9  H    0.081822
    10  H    0.220704
 Sum of Mulliken atomic charges =   0.00000

 Dipole moment (field-independent basis, Debye):
    X=             -1.5038    Y=              0.2182    Z=             -0.7109  Tot=              1.6776
 Quadrupole moment (field-independent basis, Debye-Ang):
   XX=            -28.9690   YY=            -24.4110   ZZ=            -23.4891
   XY=              0.6721   XZ=             -0.2872   YZ=             -0.0289

 Normal termination of Gaussian 09 at Thu Mar  3 22:26:39 2016.
