 Gaussian 09, Revision E.01,
 Gaussian 09:  ES64L-G09RevE.01 30-Nov-2015

 -------------
 # mp2/cc-pVTZ
 -------------

 -------------------------
 tgctgr180180_single_point
 -------------------------
 Symbolic Z-matrix:
 Charge =  0 Multiplicity = 1

                         Standard orientation:
 ---------------------------------------------------------------------
 Center     Atomic      Atomic             Coordinates (Angstroms)
 Number     Number       Type             X           Y           Z
 ---------------------------------------------------------------------
      1          6           0       -3.535469    0.230861    0.002652
      2          1           0       -4.140494   -0.218686    0.805125
      3          8           0       -4.367829    1.041050   -0.830213
      4          6           0       -2.877781   -0.889252   -0.791735
      5          6           0       -2.462839    1.124345    0.637197
      6          6           0       -3.042692    2.210077    1.548661
      7          1           0       -1.868269    1.604042   -0.148906
      8          8           0       -1.612422    0.303728    1.464078
      9          8           0       -3.924103   -1.716343   -1.300729
     10          6           0       -1.926646   -1.671406    0.109221
     11          1           0       -2.308791   -0.452463   -1.624750
     12          1           0       -2.514210   -2.132079    0.918220
     13          6           0       -0.920080   -0.719396    0.798057
     14          8           0       -1.330554   -2.682794   -0.695331
     15          8           0       -0.006763   -0.079612   -0.100321
     16          1           0       -0.368059   -1.250947    1.576308
     17          6           0        0.942389   -0.778582   -0.898190
     18          1           0        0.440114   -1.332090   -1.694390
     19          8           0        1.715445    0.204380   -1.547627
     20          6           0        1.903553   -1.703800   -0.123837
     21          6           0        2.489549    1.056094   -0.682591
     22          8           0        1.189496   -2.756210    0.534296
     23          6           0        2.739496   -0.901003    0.862947
     24          1           0        2.572585   -2.144539   -0.876077
     25          1           0        2.086527   -0.442228    1.618235
     26          8           0        3.627678   -1.825997    1.490924
     27          1           0        1.828116    1.597470    0.003631
     28          6           0        3.166598    2.040464   -1.633846
     29          6           0        3.487312    0.213914    0.136124
     30          8           0        4.155198    0.966074    1.141952
     31          1           0        4.218198   -0.242857   -0.551227
     32          1           0       -3.739243    1.753654    2.269368
     33          8           0       -3.664569    3.252069    0.812114
     34          1           0       -2.224165    2.663679    2.113865
     35          8           0        4.025857    2.884998   -0.853706
     36          1           0        2.398728    2.629623   -2.148475
     37          1           0        3.744374    1.480953   -2.381749
     38          1           0       -4.274997    2.844402    0.177742
     39          1           0        4.463424    3.524007   -1.429113
     40          1           0       -0.595260   -3.094041   -0.208627
     41          1           0       -3.515744   -2.476255   -1.739472
     42          1           0       -4.962929    0.450388   -1.314825
     43          1           0        1.824168   -3.217153    1.104424
     44          1           0        4.201245   -1.326744    2.089983
     45          1           0        4.494870    1.777222    0.729244
 ---------------------------------------------------------------------

 SCF Done:  E(RHF) =  -1291.14610107     A.U. after   13 cycles
 E2 =    -0.4634720465D+01 EUMP2 =    -0.12957808215319D+04

 The electronic state is 1-A.
 Alpha  occ. eigenvalues --  -20.58733 -20.58598 -20.58079 -20.57296 -20.57251
 Alpha  occ. eigenvalues --  -20.57199 -20.56763 -20.56400 -20.56396 -20.55989
 Alpha  occ. eigenvalues --  -20.53406 -11.35413 -11.34852 -11.30437 -11.29843
 Alpha  occ. eigenvalues --  -11.29757 -11.29556 -11.29410 -11.29282 -11.28820
 Alpha  occ. eigenvalues --  -11.28681 -11.28267 -11.26638  -1.44380  -1.40779
 Alpha  occ. eigenvalues --   -1.39655  -1.38810  -1.38311  -1.37593  -1.37010
 Alpha  occ. eigenvalues --   -1.35525  -1.35114  -1.34033  -1.33447  -1.06806
 Alpha  occ. eigenvalues --   -1.06125  -1.06053  -1.03250  -0.94854  -0.92534
 Alpha  occ. eigenvalues --   -0.89245  -0.86838  -0.84895  -0.83925  -0.81264
 Alpha  occ. eigenvalues --   -0.77758  -0.75815  -0.73877  -0.72515  -0.72274
 Alpha  occ. eigenvalues --   -0.71591  -0.70730  -0.70228  -0.68870  -0.67541
 Alpha  occ. eigenvalues --   -0.67230  -0.65994  -0.65634  -0.64936  -0.63738
 Alpha  occ. eigenvalues --   -0.63617  -0.62151  -0.60929  -0.60260  -0.60114
 Alpha  occ. eigenvalues --   -0.59659  -0.58725  -0.57638  -0.57337  -0.56521
 Alpha  occ. eigenvalues --   -0.56088  -0.55546  -0.54825  -0.54148  -0.53579
 Alpha  occ. eigenvalues --   -0.52743  -0.51720  -0.50609  -0.49803  -0.49581
 Alpha  occ. eigenvalues --   -0.47988  -0.47489  -0.47132  -0.46323  -0.44866
 Alpha  occ. eigenvalues --   -0.44618  -0.44274  -0.43947  -0.43168  -0.42662
 Alpha  occ. eigenvalues --   -0.41266
 Alpha virt. eigenvalues --    0.12347   0.13862   0.14416   0.15285   0.15716
 Alpha virt. eigenvalues --    0.16020   0.16850   0.18192   0.18524   0.19089
 Alpha virt. eigenvalues --    0.19688   0.20291   0.21123   0.21618   0.22380

 Mulliken charges:
               1
     1  C    0.113689
     2  H    0.092867
     3  O   -0.459451
     4  C    0.131828
     5  C    0.094145
     6  C    0.074061
     7  H    0.113658
     8  O   -0.411998
     9  O   -0.452494
    10  C    0.073782
    11  H    0.100538
    12  H    0.118744
    13  C    0.242558
    14  O   -0.474686
    15  O   -0.439287
    16  H    0.141861
    17  C    0.251269
    18  H    0.151911
    19  O   -0.414757
    20  C    0.080552
    21  C    0.089502
    22  O   -0.475567
    23  C    0.134304
    24  H    0.125348
    25  H    0.108662
    26  O   -0.457832
    27  H    0.126750
    28  C    0.045511
    29  C    0.108128
    30  O   -0.463042
    31  H    0.088043
    32  H    0.053256
    33  O   -0.444416
    34  H    0.100205
    35  O   -0.429909
    36  H    0.099475
    37  H    0.075254
    38  H    0.247818
    39  H    0.226624
    40  H    0.260636
    41  H    0.245974
    42  H    0.245403
    43  H    0.253270
    44  H    0.250603
    45  H    0.257210
 Sum of Mulliken charges =  -0.00000

 Dipole moment (field-independent basis, Debye):
    X=              3.9474    Y=             -1.9903    Z=             -1.8121  Tot=              4.7777
 Quadrupole moment (field-independent basis, Debye-Ang):
   XX=           -128.8449   YY=           -138.0951   ZZ=           -131.7781
   XY=             16.5729   XZ=             -6.0769   YZ=            -10.4889

 Normal termination of Gaussian 09 at Thu Jul 12 01:31:06 2018.
