 Gaussian 09, Revision A.01,
 Gaussian 09:  EM64L-G09RevA.01  8-May-2009

 -------------
 # mp2/cc-pVTZ
 -------------

 ---------------------
 THP_F_eq_single_point
 ---------------------
 Symbolic Z-matrix:
 Charge =  0 Multiplicity = 1

                         Standard orientation:
 ---------------------------------------------------------------------
 Center     Atomic      Atomic             Coordinates (Angstroms)
 Number     Number       Type             X           Y           Z
 ---------------------------------------------------------------------
      1          8           0        0.388364   -1.156428   -0.210816
      2          6           0       -0.983131   -1.283491    0.187272
      3          6           0       -1.814106   -0.090423   -0.287527
      4          6           0       -1.185711    1.222274    0.205255
      5          6           0        0.310161    1.268178   -0.157298
      6          6           0        0.993760   -0.005447    0.315474
      7          9           0        2.306059   -0.033474   -0.128909
      8          1           0       -1.852421   -0.098334   -1.383872
      9          1           0       -2.843220   -0.193231    0.078053
     10          1           0       -1.301254    1.295372    1.296104
     11          1           0       -1.703279    2.088116   -0.221378
     12          1           0        0.803553    2.136356    0.293090
     13          1           0        0.442442    1.329549   -1.243881
     14          1           0       -1.326021   -2.223095   -0.251738
     15          1           0       -1.038818   -1.377838    1.284999
     16          1           0        1.031737   -0.070756    1.416275
 ---------------------------------------------------------------------

 SCF Done:  E(RHF) =  -369.013562552     A.U. after   12 cycles
 E2 =    -0.1334809576D+01 EUMP2 =    -0.37034837212802D+03

 The electronic state is 1-A.
 Alpha  occ. eigenvalues --  -26.27379 -20.56549 -11.36198 -11.28735 -11.23925
 Alpha  occ. eigenvalues --  -11.23454 -11.23306  -1.59090  -1.38512  -1.08929
 Alpha  occ. eigenvalues --   -1.03213  -0.89387  -0.87348  -0.79542  -0.71227
 Alpha  occ. eigenvalues --   -0.70131  -0.68124  -0.64381  -0.61949  -0.60584
 Alpha  occ. eigenvalues --   -0.58426  -0.55850  -0.54613  -0.50794  -0.49779
 Alpha  occ. eigenvalues --   -0.48871  -0.46675  -0.41986
 Alpha virt. eigenvalues --    0.13383   0.15104   0.16098   0.18326   0.20519
 Alpha virt. eigenvalues --    0.20656   0.21453   0.22035   0.24319   0.27148
 Alpha virt. eigenvalues --    0.29541   0.32474   0.33493   0.35869   0.37405

 Mulliken atomic charges:
              1
     1  O   -0.367924
     2  C    0.010490
     3  C   -0.187316
     4  C   -0.224627
     5  C   -0.205528
     6  C    0.389013
     7  F   -0.285294
     8  H    0.098415
     9  H    0.106983
    10  H    0.097019
    11  H    0.116071
    12  H    0.112621
    13  H    0.101133
    14  H    0.116769
    15  H    0.072204
    16  H    0.049972
 Sum of Mulliken atomic charges =   0.00000

 Dipole moment (field-independent basis, Debye):
    X=             -3.1394    Y=              1.2052    Z=              1.2004  Tot=              3.5707
 Quadrupole moment (field-independent basis, Debye-Ang):
   XX=            -46.6296   YY=            -42.1831   ZZ=            -41.1865
   XY=              2.5561   XZ=              1.4772   YZ=             -0.9018

 Normal termination of Gaussian 09 at Thu Mar  3 22:44:47 2016.
