 Gaussian 09, Revision A.01,
 Gaussian 09:  EM64L-G09RevA.01  8-May-2009

 -------------
 # mp2/cc-pVTZ
 -------------

 -----------------------
 THP_SMe_eq_single_point
 -----------------------
 Symbolic Z-matrix:
 Charge =  0 Multiplicity = 1

                         Standard orientation:
 ---------------------------------------------------------------------
 Center     Atomic      Atomic             Coordinates (Angstroms)
 Number     Number       Type             X           Y           Z
 ---------------------------------------------------------------------
      1          8           0        0.175633    0.993388   -0.379655
      2          6           0        1.465452    1.437671    0.056687
      3          6           0        2.545973    0.400305   -0.249480
      4          6           0        2.171319   -0.953746    0.372018
      5          6           0        0.740852   -1.357285   -0.026728
      6          6           0       -0.231725   -0.210601    0.267913
      7         16           0       -1.910721   -0.648103   -0.295490
      8          6           0       -2.841568    0.787865    0.346476
      9          1           0        2.640777    0.299108   -1.338078
     10          1           0        3.512803    0.751995    0.132071
     11          1           0        2.236284   -0.881920    1.467222
     12          1           0        2.880687   -1.731273    0.066354
     13          1           0        0.424912   -2.256099    0.513902
     14          1           0        0.700159   -1.581250   -1.099906
     15          1           0        1.643750    2.379363   -0.469438
     16          1           0        1.434467    1.649731    1.139514
     17          1           0       -0.274565   -0.027284    1.355431
     18          1           0       -2.469101    1.712385   -0.097618
     19          1           0       -3.884648    0.640857    0.057024
     20          1           0       -2.780867    0.841685    1.437285
 ---------------------------------------------------------------------

 SCF Done:  E(RHF) =  -706.703828829     A.U. after   13 cycles
 E2 =    -0.1444943654D+01 EUMP2 =    -0.70814877248301D+03

 The electronic state is 1-A.
 Alpha  occ. eigenvalues --  -91.93778 -20.55634 -11.30868 -11.27795 -11.24598
 Alpha  occ. eigenvalues --  -11.23090 -11.22901 -11.22718  -8.93901  -6.62022
 Alpha  occ. eigenvalues --   -6.61927  -6.61838  -1.37447  -1.08219  -1.06052
 Alpha  occ. eigenvalues --   -0.99721  -0.89702  -0.86953  -0.80492  -0.77412
 Alpha  occ. eigenvalues --   -0.66406  -0.64956  -0.62028  -0.61696  -0.57996
 Alpha  occ. eigenvalues --   -0.57743  -0.57380  -0.54379  -0.51644  -0.50962
 Alpha  occ. eigenvalues --   -0.48744  -0.46276  -0.45553  -0.41993  -0.41042
 Alpha  occ. eigenvalues --   -0.33839
 Alpha virt. eigenvalues --    0.13731   0.14426   0.15957   0.16643   0.17892
 Alpha virt. eigenvalues --    0.20310   0.20697   0.21325   0.21930   0.22599
 Alpha virt. eigenvalues --    0.23064   0.23916   0.24601   0.26920   0.28370

 Mulliken atomic charges:
              1
     1  O   -0.392152
     2  C    0.015868
     3  C   -0.182397
     4  C   -0.213322
     5  C   -0.204910
     6  C    0.156066
     7  S   -0.134130
     8  C   -0.267129
     9  H    0.094822
    10  H    0.103883
    11  H    0.094338
    12  H    0.113373
    13  H    0.122914
    14  H    0.107146
    15  H    0.109570
    16  H    0.065927
    17  H    0.081268
    18  H    0.122223
    19  H    0.110651
    20  H    0.095994
 Sum of Mulliken atomic charges =   0.00000

 Dipole moment (field-independent basis, Debye):
    X=              1.6920    Y=              0.6309    Z=              1.6271  Tot=              2.4307
 Quadrupole moment (field-independent basis, Debye-Ang):
   XX=            -53.7973   YY=            -58.0981   ZZ=            -58.7145
   XY=             -2.3846   XZ=             -1.6010   YZ=              0.9012

 1\1\GINC-ROCK\SP\RMP2-FC\CC-pVTZ\C6H12O1S1\STYLIANAKIS\03-Mar-2016\0\\
 # mp2/cc-pVTZ\\THP_SMe_eq_single_point\\0,1\O\C,1,1.432276\C,2,1.52885
 3,1,111.406\C,3,1.536255,2,110.162,1,-55.456,0\C,4,1.538856,3,110.671,
 2,51.327,0\C,5,1.532189,4,110.119,3,-51.37,0\S,6,1.824242,5,110.203,4,
 176.625,0\C,7,1.827731,6,99.895,5,174.005,0\H,3,1.097395,4,109.944,5,-
 68.571,0\H,3,1.097282,4,110.898,5,172.854,0\H,4,1.099477,3,109.329,2,-
 69.091,0\H,4,1.095984,3,110.77,2,173.71,0\H,5,1.09543,4,110.817,3,-172
 .85,0\H,5,1.097054,4,109.968,3,68.148,0\H,2,1.093336,3,111.888,4,-173.

 Normal termination of Gaussian 09 at Thu Mar  3 23:19:46 2016.
