 Gaussian 09, Revision A.01,
 Gaussian 09:  EM64L-G09RevA.01  8-May-2009

 -------------
 # mp2/cc-pVTZ
 -------------

 -----------------------
 THP_SMe_ax_single_point
 -----------------------
 Symbolic Z-matrix:
 Charge =  0 Multiplicity = 1

                         Standard orientation:
 ---------------------------------------------------------------------
 Center     Atomic      Atomic             Coordinates (Angstroms)
 Number     Number       Type             X           Y           Z
 ---------------------------------------------------------------------
      1          8           0       -0.208377    1.067605    0.802579
      2          6           0       -1.062514    1.433850   -0.292757
      3          6           0       -2.296274    0.536107   -0.374914
      4          6           0       -1.874368   -0.938746   -0.460219
      5          6           0       -0.913694   -1.275216    0.691259
      6          6           0        0.246513   -0.273793    0.788159
      7         16           0        1.497799   -0.610586   -0.550216
      8          6           0        2.806306    0.545137   -0.008838
      9          1           0       -2.917187    0.695729    0.516565
     10          1           0       -2.897254    0.823733   -1.246563
     11          1           0       -1.383120   -1.126028   -1.423441
     12          1           0       -2.750649   -1.595831   -0.418370
     13          1           0       -0.518455   -2.292226    0.599119
     14          1           0       -1.459640   -1.222954    1.642425
     15          1           0       -1.330595    2.476517   -0.103650
     16          1           0       -0.489809    1.384026   -1.229636
     17          1           0        0.776828   -0.392914    1.737162
     18          1           0        3.205568    0.256733    0.967861
     19          1           0        3.607086    0.490999   -0.749724
     20          1           0        2.423652    1.566721    0.034939
 ---------------------------------------------------------------------

 SCF Done:  E(RHF) =  -706.703335968     A.U. after   13 cycles
 E2 =    -0.1446969675D+01 EUMP2 =    -0.70815030564277D+03

 The electronic state is 1-A.
 Alpha  occ. eigenvalues --  -91.93725 -20.55812 -11.31102 -11.27210 -11.24764
 Alpha  occ. eigenvalues --  -11.23010 -11.22672 -11.22455  -8.93844  -6.61962
 Alpha  occ. eigenvalues --   -6.61872  -6.61789  -1.37500  -1.08084  -1.05371
 Alpha  occ. eigenvalues --   -1.00133  -0.89291  -0.86845  -0.82549  -0.73803
 Alpha  occ. eigenvalues --   -0.68327  -0.63936  -0.62311  -0.60693  -0.58349
 Alpha  occ. eigenvalues --   -0.57671  -0.56801  -0.54280  -0.54110  -0.48974
 Alpha  occ. eigenvalues --   -0.48284  -0.47172  -0.46173  -0.42380  -0.39294
 Alpha  occ. eigenvalues --   -0.33961
 Alpha virt. eigenvalues --    0.13906   0.14443   0.16018   0.17278   0.17781
 Alpha virt. eigenvalues --    0.19892   0.20630   0.21539   0.22067   0.22424
 Alpha virt. eigenvalues --    0.23130   0.24759   0.25382   0.26391   0.28183

 Mulliken atomic charges:
              1
     1  O   -0.398497
     2  C    0.028278
     3  C   -0.191603
     4  C   -0.209800
     5  C   -0.207369
     6  C    0.120572
     7  S   -0.162080
     8  C   -0.263736
     9  H    0.090093
    10  H    0.104398
    11  H    0.109618
    12  H    0.114163
    13  H    0.120476
    14  H    0.103867
    15  H    0.112063
    16  H    0.081501
    17  H    0.117692
    18  H    0.101525
    19  H    0.111062
    20  H    0.117777
 Sum of Mulliken atomic charges =   0.00000

 Dipole moment (field-independent basis, Debye):
    X=             -0.7529    Y=              0.2061    Z=              0.2041  Tot=              0.8069
 Quadrupole moment (field-independent basis, Debye-Ang):
   XX=            -53.2493   YY=            -58.8477   ZZ=            -58.6957
   XY=              2.0437   XZ=              1.6033   YZ=             -3.1566

 1\1\GINC-ROCK\SP\RMP2-FC\CC-pVTZ\C6H12O1S1\STYLIANAKIS\03-Mar-2016\0\\
 # mp2/cc-pVTZ\\THP_SMe_ax_single_point\\0,1\O\C,1,1.43647\C,2,1.528024
 ,1,111.796\C,3,1.536383,2,110.197,1,-55.475,0\C,4,1.536883,3,109.89,2,
 52.78,0\C,5,1.535682,4,112.133,3,-50.828,0\S,6,1.862899,5,110.135,4,-7
 6.127,0\C,7,1.827834,6,98.844,5,-172.106,0\H,3,1.098065,4,109.871,5,-6
 7.486,0\H,3,1.097122,4,110.976,5,174.027,0\H,4,1.097358,3,109.603,2,-6
 8.096,0\H,4,1.096075,3,110.721,2,174.334,0\H,5,1.094994,4,111.464,3,-1
 74.354,0\H,5,1.097955,4,109.137,3,67.367,0\H,2,1.093061,3,111.821,4,-1

 Normal termination of Gaussian 09 at Thu Mar  3 23:02:33 2016.
