 Gaussian 09, Revision A.01,
 Gaussian 09:  EM64L-G09RevA.01  8-May-2009

 -------------
 # mp2/cc-pVTZ
 -------------

 ---------------------
 THP_F_ax_single_point
 ---------------------
 Symbolic Z-matrix:
 Charge =  0 Multiplicity = 1

                         Standard orientation:
 ---------------------------------------------------------------------
 Center     Atomic      Atomic             Coordinates (Angstroms)
 Number     Number       Type             X           Y           Z
 ---------------------------------------------------------------------
      1          8           0        0.370882   -1.164310   -0.621482
      2          6           0       -0.805518   -1.283071    0.208634
      3          6           0       -1.731517   -0.079523    0.054557
      4          6           0       -0.961720    1.218745    0.339580
      5          6           0        0.299057    1.277285   -0.535440
      6          6           0        1.111062   -0.009701   -0.431959
      7          9           0        1.713390   -0.042084    0.856415
      8          1           0       -2.132930   -0.060524   -0.967242
      9          1           0       -2.583004   -0.190602    0.736953
     10          1           0       -0.674378    1.252314    1.397638
     11          1           0       -1.591184    2.095342    0.151019
     12          1           0        0.940750    2.121917   -0.264728
     13          1           0        0.019932    1.399866   -1.589923
     14          1           0       -1.281672   -2.210150   -0.117969
     15          1           0       -0.489907   -1.402899    1.252838
     16          1           0        1.936636   -0.054435   -1.146700
 ---------------------------------------------------------------------

 SCF Done:  E(RHF) =  -369.016779293     A.U. after   12 cycles
 E2 =    -0.1335481339D+01 EUMP2 =    -0.37035226063251D+03

 The electronic state is 1-A.
 Alpha  occ. eigenvalues --  -26.26374 -20.56866 -11.36001 -11.28093 -11.23447
 Alpha  occ. eigenvalues --  -11.23280 -11.23149  -1.57434  -1.38662  -1.08615
 Alpha  occ. eigenvalues --   -1.03488  -0.88876  -0.87693  -0.77553  -0.72178
 Alpha  occ. eigenvalues --   -0.68904  -0.67086  -0.64479  -0.61529  -0.59583
 Alpha  occ. eigenvalues --   -0.57602  -0.55492  -0.54469  -0.53329  -0.48828
 Alpha  occ. eigenvalues --   -0.47220  -0.46422  -0.42797
 Alpha virt. eigenvalues --    0.13655   0.15824   0.17052   0.17679   0.20166
 Alpha virt. eigenvalues --    0.21009   0.21650   0.22598   0.24600   0.26650
 Alpha virt. eigenvalues --    0.29667   0.32165   0.34039   0.35048   0.36825

 Mulliken atomic charges:
              1
     1  O   -0.382900
     2  C    0.023495
     3  C   -0.200321
     4  C   -0.206389
     5  C   -0.203533
     6  C    0.376925
     7  F   -0.345116
     8  H    0.092776
     9  H    0.107058
    10  H    0.107458
    11  H    0.112620
    12  H    0.112313
    13  H    0.095497
    14  H    0.111892
    15  H    0.091596
    16  H    0.106630
 Sum of Mulliken atomic charges =   0.00000

 Dipole moment (field-independent basis, Debye):
    X=             -1.9482    Y=              1.2103    Z=             -0.7220  Tot=              2.4045
 Quadrupole moment (field-independent basis, Debye-Ang):
   XX=            -42.7654   YY=            -42.2345   ZZ=            -43.0129
   XY=              2.2169   XZ=             -3.2286   YZ=             -1.8554

 Normal termination of Gaussian 09 at Thu Mar  3 22:36:18 2016.
