 Gaussian 09, Revision A.01,
 Gaussian 09:  EM64L-G09RevA.01  8-May-2009

 -------------
 # mp2/cc-pVTZ
 -------------

 --------------------------------
 vinyl_alcohol_s_cis_single_point
 --------------------------------
 Symbolic Z-matrix:
 Charge =  0 Multiplicity = 1

                         Standard orientation:
 ---------------------------------------------------------------------
 Center     Atomic      Atomic             Coordinates (Angstroms)
 Number     Number       Type             X           Y           Z
 ---------------------------------------------------------------------
      1          6           0        1.205020   -0.206612   -0.000004
      2          6           0        0.036546    0.441796    0.000001
      3          8           0       -1.209733   -0.114655   -0.000008
      4          1           0       -1.138502   -1.079959    0.000061
      5          1           0        2.132501    0.352931    0.000021
      6          1           0        1.269995   -1.291856   -0.000017
      7          1           0       -0.035521    1.525020    0.000014
 ---------------------------------------------------------------------

 SCF Done:  E(RHF) =  -152.954967432     A.U. after   12 cycles
 E2 =    -0.5704633508D+00 EUMP2 =    -0.15352543078296D+03

 The electronic state is 1-A.
 Alpha  occ. eigenvalues --  -20.58885 -11.30060 -11.21578  -1.39998  -1.02027
 Alpha  occ. eigenvalues --   -0.83006  -0.67803  -0.66659  -0.57709  -0.54565
 Alpha  occ. eigenvalues --   -0.53978  -0.34964
 Alpha virt. eigenvalues --    0.14557   0.16902   0.17582   0.19395   0.22218
 Alpha virt. eigenvalues --    0.32912   0.36733   0.44255   0.45742   0.49711
 Alpha virt. eigenvalues --    0.51527   0.55177   0.57985   0.58849   0.62786

 Mulliken atomic charges:
              1
     1  C   -0.410289
     2  C    0.086019
     3  O   -0.353436
     4  H    0.239687
     5  H    0.139846
     6  H    0.125402
     7  H    0.172770
 Sum of Mulliken atomic charges =   0.00000

 Dipole moment (field-independent basis, Debye):
    X=              0.5547    Y=             -0.8062    Z=              0.0001  Tot=              0.9786
 Quadrupole moment (field-independent basis, Debye-Ang):
   XX=            -20.0079   YY=            -14.3996   ZZ=            -21.0673
   XY=              1.6728   XZ=             -0.0001   YZ=             -0.0001

 Normal termination of Gaussian 09 at Thu Mar  3 23:20:05 2016.
