 Gaussian 09, Revision A.01,
 Gaussian 09:  EM64L-G09RevA.01  8-May-2009

 -------------------
 # b3lyp/6-31+g(d,p)
 -------------------

 ---------------------------
 2-(1-Ad)-N-Meax-pip-ecl.hin
 ---------------------------
 Symbolic Z-matrix:
 Charge =  0 Multiplicity = 1

                         Standard orientation:
 ---------------------------------------------------------------------
 Center     Atomic      Atomic             Coordinates (Angstroms)
 Number     Number       Type             X           Y           Z
 ---------------------------------------------------------------------
      1          6           0        2.373990    1.436221   -0.012352
      2          6           0        2.992308    0.767634    1.222604
      3          6           0        2.530544   -0.695267    1.261215
      4          6           0        0.838639    1.378840    0.075569
      5          6           0        0.993390   -0.742451    1.313657
      6          6           0        0.306445   -0.074936    0.074878
      7          6           0        2.835014    0.713261   -1.288446
      8          6           0        0.870401   -0.867113   -1.126539
      9          6           0        2.402598   -0.759912   -1.225315
     10          6           0        3.030169   -1.427500    0.007546
     11          6           0       -1.244471   -0.264896    0.293726
     12          6           0       -1.995037   -1.234039   -0.645577
     13          6           0       -3.404267   -1.510069   -0.088180
     14          6           0       -4.181369   -0.217471    0.191047
     15          7           0       -1.983493    1.005162    0.297742
     16          6           0       -3.302738    0.827301    0.902842
     17          1           0        2.707313    2.503638   -0.051697
     18          1           0        2.675349    1.300060    2.150620
     19          1           0        4.105885    0.824363    1.180598
     20          1           0        2.954750   -1.190656    2.170130
     21          1           0        0.471996    1.960862   -0.794553
     22          1           0        0.496116    1.915541    0.991231
     23          1           0        0.664232   -0.238633    2.253904
     24          1           0        0.680681   -1.810885    1.397969
     25          1           0        3.944192    0.783217   -1.388035
     26          1           0        2.398881    1.202999   -2.191196
     27          1           0        0.419058   -0.459387   -2.060836
     28          1           0        0.607497   -1.947939   -1.076729
     29          1           0        2.754047   -1.287663   -2.146965
     30          1           0        4.143732   -1.387544   -0.050561
     31          1           0        2.748293   -2.506280    0.051692
     32          1           0       -1.359372   -0.693592    1.316521
     33          1           0       -1.475942   -2.219832   -0.673921
     34          1           0       -2.041515   -0.870468   -1.697216
     35          1           0       -3.308410   -2.076332    0.869597
     36          1           0       -3.978759   -2.163814   -0.787896
     37          1           0       -5.080175   -0.442729    0.814452
     38          1           0       -4.586680    0.184864   -0.765861
     39          1           0       -3.835086    1.808120    0.942402
     40          1           0       -3.172523    0.522986    1.969226
     41          6           0       -2.131732    1.634931   -1.013874
     42          1           0       -2.311089    2.727502   -0.884833
     43          1           0       -1.244590    1.504912   -1.666971
     44          1           0       -2.976728    1.233353   -1.612067
 ---------------------------------------------------------------------

 SCF Done:  E(RB3LYP) =  -680.752758263     A.U. after   13 cycles

 The electronic state is 1-A.
 Alpha  occ. eigenvalues --  -14.32199 -10.21248 -10.20804 -10.20269 -10.19530
 Alpha  occ. eigenvalues --  -10.18704 -10.18511 -10.18315 -10.18290 -10.18280
 Alpha  occ. eigenvalues --  -10.18167 -10.17932 -10.17832 -10.17813 -10.17794
 Alpha  occ. eigenvalues --  -10.17627 -10.17425  -0.92668  -0.86755  -0.78768
 Alpha  occ. eigenvalues --   -0.78103  -0.76471  -0.76260  -0.73090  -0.69465
 Alpha  occ. eigenvalues --   -0.66284  -0.65888  -0.62203  -0.61158  -0.57745
 Alpha  occ. eigenvalues --   -0.57469  -0.56503  -0.53849  -0.51412  -0.47536
 Alpha  occ. eigenvalues --   -0.47169  -0.45445  -0.44856  -0.44435  -0.44273
 Alpha  occ. eigenvalues --   -0.43786  -0.42157  -0.41343  -0.40543  -0.40175
 Alpha  occ. eigenvalues --   -0.39972  -0.39133  -0.38565  -0.38400  -0.37741
 Alpha  occ. eigenvalues --   -0.36686  -0.35468  -0.34760  -0.34388  -0.32764
 Alpha  occ. eigenvalues --   -0.32156  -0.32023  -0.31847  -0.31819  -0.31089
 Alpha  occ. eigenvalues --   -0.30830  -0.28115  -0.27611  -0.26916  -0.20253
 Alpha virt. eigenvalues --   -0.00736   0.00501   0.00974   0.01404   0.02356
 Alpha virt. eigenvalues --    0.02609   0.02709   0.03379   0.03454   0.04353
 Alpha virt. eigenvalues --    0.04720   0.05049   0.05185   0.05780   0.06456

 Mulliken atomic charges:
              1
     1  C    0.049651
     2  C   -0.396918
     3  C    0.002797
     4  C   -0.347403
     5  C   -0.563311
     6  C   -0.061876
     7  C   -0.417094
     8  C   -0.393231
     9  C   -0.013320
    10  C   -0.403415
    11  C    0.072484
    12  C   -0.072186
    13  C   -0.378943
    14  C   -0.167963
    15  N   -0.015514
    16  C   -0.105596
    17  H    0.115346
    18  H    0.129951
    19  H    0.127113
    20  H    0.115260
    21  H    0.118608
    22  H    0.159957
    23  H    0.141483
    24  H    0.139637
    25  H    0.129398
    26  H    0.127086
    27  H    0.135334
    28  H    0.136516
    29  H    0.114960
    30  H    0.129231
    31  H    0.127532
    32  H    0.121603
    33  H    0.125060
    34  H    0.145655
    35  H    0.137538
    36  H    0.134668
    37  H    0.131957
    38  H    0.132675
    39  H    0.128661
    40  H    0.130524
    41  C   -0.327511
    42  H    0.137602
    43  H    0.138877
    44  H    0.127116
 Sum of Mulliken atomic charges =   0.00000

 Dipole moment (field-independent basis, Debye):
    X=             -0.4522    Y=             -0.4980    Z=             -0.4338  Tot=              0.8004
 Quadrupole moment (field-independent basis, Debye-Ang):
   XX=           -108.2475   YY=           -110.6313   ZZ=           -109.5867
   XY=              0.3230   XZ=              0.3037   YZ=             -1.4018

 Normal termination of Gaussian 09 at Mon Feb 19 02:01:52 2018.
