 Gaussian 09, Revision A.01,
 Gaussian 09:  EM64L-G09RevA.01  8-May-2009

 -------------------
 # b3lyp/6-31+g(d,p)
 -------------------

 -------------------------
 2-(1-Ad)-N-Me-pip-ecl.hin
 -------------------------
 Symbolic Z-matrix:
 Charge =  0 Multiplicity = 1

                         Standard orientation:
 ---------------------------------------------------------------------
 Center     Atomic      Atomic             Coordinates (Angstroms)
 Number     Number       Type             X           Y           Z
 ---------------------------------------------------------------------
      1          6           0       -2.430525   -1.482846    0.165745
      2          6           0       -2.799740   -0.708973    1.437313
      3          6           0       -2.216039    0.703217    1.308753
      4          6           0       -0.897561   -1.504947    0.017083
      5          6           0       -0.689581    0.617540    1.127867
      6          6           0       -0.281072   -0.089360   -0.199756
      7          6           0       -3.070929   -0.806918   -1.056043
      8          6           0       -1.000302    0.567267   -1.397715
      9          6           0       -2.521529    0.621965   -1.182319
     10          6           0       -2.837058    1.415626    0.095893
     11          6           0        1.291436   -0.085336   -0.382599
     12          6           0        1.904348   -1.501434   -0.229571
     13          6           0        3.431206   -1.578914   -0.325051
     14          6           0        4.026830   -0.521545    0.606371
     15          7           0        2.052529    0.979447    0.287231
     16          6           0        3.498617    0.826941    0.114360
     17          1           0       -2.817451   -2.529229    0.251273
     18          1           0       -2.385520   -1.219631    2.338956
     19          1           0       -3.907186   -0.668166    1.567252
     20          1           0       -2.454955    1.278134    2.238467
     21          1           0       -0.678574   -2.139585   -0.872168
     22          1           0       -0.479189   -2.022620    0.910534
     23          1           0       -0.229259    0.089214    1.995958
     24          1           0       -0.322961    1.659307    1.208693
     25          1           0       -4.181253   -0.785218   -0.947433
     26          1           0       -2.849146   -1.390086   -1.981113
     27          1           0       -0.780030   -0.008013   -2.327598
     28          1           0       -0.627124    1.600387   -1.574111
     29          1           0       -3.001627    1.124633   -2.058788
     30          1           0       -3.941426    1.504197    0.228489
     31          1           0       -2.437331    2.454037    0.012288
     32          1           0        1.450695    0.086708   -1.474001
     33          1           0        1.488195   -2.220053   -0.974580
     34          1           0        1.655919   -1.870158    0.792215
     35          1           0        3.758204   -1.401190   -1.377539
     36          1           0        3.793543   -2.595834   -0.037985
     37          1           0        5.142055   -0.551596    0.553591
     38          1           0        3.728846   -0.702456    1.666797
     39          1           0        4.023296    1.615375    0.706907
     40          1           0        3.796200    0.971002   -0.952537
     41          6           0        1.742501    2.318122   -0.231061
     42          1           0        2.280605    3.098561    0.355635
     43          1           0        2.030360    2.424372   -1.303117
     44          1           0        0.673809    2.599345   -0.172343
 ---------------------------------------------------------------------

 SCF Done:  E(RB3LYP) =  -680.752265874     A.U. after   13 cycles

 The electronic state is 1-A.
 Alpha  occ. eigenvalues --  -14.33371 -10.21623 -10.20879 -10.20588 -10.19955
 Alpha  occ. eigenvalues --  -10.18617 -10.18497 -10.18442 -10.18429 -10.18406
 Alpha  occ. eigenvalues --  -10.18264 -10.18114 -10.17967 -10.17949 -10.17927
 Alpha  occ. eigenvalues --  -10.17618 -10.17279  -0.92838  -0.86870  -0.79716
 Alpha  occ. eigenvalues --   -0.78428  -0.76699  -0.76238  -0.72959  -0.68667
 Alpha  occ. eigenvalues --   -0.66472  -0.66041  -0.62407  -0.61346  -0.58058
 Alpha  occ. eigenvalues --   -0.57261  -0.56647  -0.53968  -0.51557  -0.48059
 Alpha  occ. eigenvalues --   -0.46086  -0.45602  -0.45157  -0.44609  -0.44093
 Alpha  occ. eigenvalues --   -0.43696  -0.43145  -0.42386  -0.41062  -0.40092
 Alpha  occ. eigenvalues --   -0.39729  -0.39362  -0.38601  -0.38334  -0.38092
 Alpha  occ. eigenvalues --   -0.36996  -0.36336  -0.34730  -0.33241  -0.32841
 Alpha  occ. eigenvalues --   -0.32593  -0.32009  -0.31773  -0.31460  -0.30949
 Alpha  occ. eigenvalues --   -0.30093  -0.27882  -0.27714  -0.27019  -0.21792
 Alpha virt. eigenvalues --   -0.00683   0.00586   0.00987   0.01412   0.02327
 Alpha virt. eigenvalues --    0.02579   0.02716   0.03331   0.03532   0.04461
 Alpha virt. eigenvalues --    0.04675   0.05037   0.05566   0.05874   0.06208

 Mulliken atomic charges:
              1
     1  C   -0.054379
     2  C   -0.395702
     3  C    0.060213
     4  C   -0.521176
     5  C   -0.302342
     6  C   -0.210628
     7  C   -0.418690
     8  C   -0.330073
     9  C    0.048773
    10  C   -0.406895
    11  C    0.064834
    12  C    0.013155
    13  C   -0.444566
    14  C   -0.293927
    15  N    0.032637
    16  C   -0.089414
    17  H    0.115631
    18  H    0.128810
    19  H    0.126286
    20  H    0.114771
    21  H    0.129564
    22  H    0.142381
    23  H    0.146212
    24  H    0.126997
    25  H    0.129865
    26  H    0.128512
    27  H    0.137533
    28  H    0.139586
    29  H    0.115310
    30  H    0.130228
    31  H    0.127187
    32  H    0.105067
    33  H    0.139079
    34  H    0.137023
    35  H    0.135236
    36  H    0.130564
    37  H    0.131454
    38  H    0.148407
    39  H    0.125390
    40  H    0.124598
    41  C   -0.265275
    42  H    0.134197
    43  H    0.128721
    44  H    0.134846
 Sum of Mulliken atomic charges =   0.00000

 Dipole moment (field-independent basis, Debye):
    X=              0.1526    Y=             -0.0857    Z=             -0.4494  Tot=              0.4823
 Quadrupole moment (field-independent basis, Debye-Ang):
   XX=           -108.5488   YY=           -108.4095   ZZ=           -111.4905
   XY=             -0.3392   XZ=             -0.1616   YZ=             -0.3888

 Normal termination of Gaussian 09 at Mon Feb 19 02:36:14 2018.
