 Gaussian 09, Revision A.01,
 Gaussian 09:  EM64L-G09RevA.01  8-May-2009

 -------------------
 # b3lyp/6-31+g(d,p)
 -------------------

 -----------------------
 2-(1-Ad)-N-Meax-pip.hin
 -----------------------
 Symbolic Z-matrix:
 Charge =  0 Multiplicity = 1

                         Standard orientation:
 ---------------------------------------------------------------------
 Center     Atomic      Atomic             Coordinates (Angstroms)
 Number     Number       Type             X           Y           Z
 ---------------------------------------------------------------------
      1          6           0       -2.395176    1.208518   -0.776866
      2          6           0       -3.050725   -0.041356   -1.382212
      3          6           0       -2.546106   -1.279538   -0.626458
      4          6           0       -0.867018    1.104742   -0.912317
      5          6           0       -1.014270   -1.367101   -0.745026
      6          6           0       -0.308981   -0.117263   -0.143332
      7          6           0       -2.768483    1.325235    0.709832
      8          6           0       -0.752425   -0.045815    1.335904
      9          6           0       -2.282278    0.072903    1.456884
     10          6           0       -2.941926   -1.176869    0.854126
     11          6           0        1.237717   -0.238004   -0.351527
     12          6           0        1.920118   -1.294985    0.544772
     13          6           0        3.368004   -1.551008    0.102780
     14          6           0        4.139557   -0.230068    0.019435
     15          7           0        1.997382    1.020672   -0.377789
     16          6           0        3.361792    0.774733   -0.842492
     17          1           0       -2.758082    2.114966   -1.322786
     18          1           0       -2.800900   -0.121807   -2.466745
     19          1           0       -4.161923    0.030648   -1.310914
     20          1           0       -3.010431   -2.195806   -1.069513
     21          1           0       -0.426504    2.054209   -0.535360
     22          1           0       -0.587616    1.036741   -1.990067
     23          1           0       -0.749545   -1.485681   -1.822109
     24          1           0       -0.677217   -2.298391   -0.235559
     25          1           0       -3.873478    1.433759    0.820405
     26          1           0       -2.308096    2.240084    1.152767
     27          1           0       -0.294315    0.816265    1.864537
     28          1           0       -0.423401   -0.956611    1.886852
     29          1           0       -2.566286    0.152692    2.536001
     30          1           0       -4.051484   -1.117472    0.955965
     31          1           0       -2.616014   -2.090604    1.405474
     32          1           0        1.318926   -0.637869   -1.390846
     33          1           0        1.375000   -2.266070    0.506797
     34          1           0        1.914238   -0.978949    1.612390
     35          1           0        3.366974   -2.040656   -0.900530
     36          1           0        3.874979   -2.252682    0.808249
     37          1           0        5.150615   -0.408957   -0.419654
     38          1           0        4.308293    0.178141    1.043278
     39          1           0        3.925492    1.736164   -0.907450
     40          1           0        3.325822    0.397400   -1.892778
     41          6           0        2.016513    1.770394    0.871065
     42          1           0        2.696349    2.649633    0.791714
     43          1           0        1.024169    2.214671    1.093768
     44          1           0        2.344878    1.164362    1.743236
 ---------------------------------------------------------------------

 SCF Done:  E(RB3LYP) =  -680.766382324     A.U. after   13 cycles

 The electronic state is 1-A.
 Alpha  occ. eigenvalues --  -14.32460 -10.21207 -10.20775 -10.20372 -10.19522
 Alpha  occ. eigenvalues --  -10.18568 -10.18545 -10.18507 -10.18267 -10.18251
 Alpha  occ. eigenvalues --  -10.18100 -10.18012 -10.17865 -10.17829 -10.17769
 Alpha  occ. eigenvalues --  -10.17729 -10.17337  -0.92679  -0.86827  -0.79089
 Alpha  occ. eigenvalues --   -0.78266  -0.76492  -0.76352  -0.72872  -0.69511
 Alpha  occ. eigenvalues --   -0.66218  -0.66079  -0.62196  -0.61242  -0.57879
 Alpha  occ. eigenvalues --   -0.57441  -0.56493  -0.54049  -0.51448  -0.47638
 Alpha  occ. eigenvalues --   -0.46937  -0.45221  -0.44938  -0.44456  -0.44292
 Alpha  occ. eigenvalues --   -0.43975  -0.42071  -0.41670  -0.41014  -0.40337
 Alpha  occ. eigenvalues --   -0.39941  -0.39336  -0.38615  -0.38251  -0.37793
 Alpha  occ. eigenvalues --   -0.36893  -0.35487  -0.34396  -0.34104  -0.32546
 Alpha  occ. eigenvalues --   -0.32409  -0.32199  -0.32123  -0.31674  -0.31296
 Alpha  occ. eigenvalues --   -0.31128  -0.27765  -0.27656  -0.27321  -0.20553
 Alpha virt. eigenvalues --   -0.00783   0.00486   0.01022   0.01296   0.02364
 Alpha virt. eigenvalues --    0.02629   0.02696   0.03229   0.03457   0.04387
 Alpha virt. eigenvalues --    0.04767   0.05084   0.05284   0.05726   0.06319

 Mulliken atomic charges:
              1
     1  C    0.107115
     2  C   -0.434373
     3  C    0.028056
     4  C   -0.250109
     5  C   -0.431334
     6  C   -0.498366
     7  C   -0.403569
     8  C   -0.167220
     9  C   -0.008057
    10  C   -0.414675
    11  C   -0.177058
    12  C    0.033135
    13  C   -0.435886
    14  C   -0.186581
    15  N    0.072653
    16  C   -0.066518
    17  H    0.114663
    18  H    0.129562
    19  H    0.127834
    20  H    0.115480
    21  H    0.144079
    22  H    0.137723
    23  H    0.134788
    24  H    0.135143
    25  H    0.128941
    26  H    0.127644
    27  H    0.134106
    28  H    0.143366
    29  H    0.114519
    30  H    0.128887
    31  H    0.128866
    32  H    0.107934
    33  H    0.133122
    34  H    0.139431
    35  H    0.136456
    36  H    0.132843
    37  H    0.129448
    38  H    0.135803
    39  H    0.126932
    40  H    0.130470
    41  C   -0.282185
    42  H    0.130905
    43  H    0.134806
    44  H    0.131221
 Sum of Mulliken atomic charges =   0.00000

 Dipole moment (field-independent basis, Debye):
    X=              0.3917    Y=             -0.4048    Z=              0.5152  Tot=              0.7633
 Quadrupole moment (field-independent basis, Debye-Ang):
   XX=           -108.1096   YY=           -110.1975   ZZ=           -110.0946
   XY=              0.0251   XZ=              0.5399   YZ=              1.6868

 Normal termination of Gaussian 09 at Mon Feb 19 02:19:09 2018.
