 Gaussian 09, Revision A.01,
 Gaussian 09:  EM64L-G09RevA.01  8-May-2009

 -------------------
 # b3lyp/6-31+g(d,p)
 -------------------

 ---------------------------
 2-(1-Ad)-N-Me-pip-trans.hin
 ---------------------------
 Symbolic Z-matrix:
 Charge =  0 Multiplicity = 1

                         Standard orientation:
 ---------------------------------------------------------------------
 Center     Atomic      Atomic             Coordinates (Angstroms)
 Number     Number       Type             X           Y           Z
 ---------------------------------------------------------------------
      1          6           0       -2.506628    0.955384   -0.920317
      2          6           0       -3.120033   -0.420752   -1.208702
      3          6           0       -2.471535   -1.440502   -0.264413
      4          6           0       -0.988938    0.895244   -1.161680
      5          6           0       -0.946461   -1.456791   -0.475889
      6          6           0       -0.276600   -0.080464   -0.186317
      7          6           0       -2.778811    1.359907    0.537745
      8          6           0       -0.639111    0.262210    1.277499
      9          6           0       -2.163427    0.315581    1.483708
     10          6           0       -2.776307   -1.062641    1.193491
     11          6           0        1.285343   -0.105998   -0.417171
     12          6           0        1.880631   -1.486609   -0.035447
     13          6           0        3.387359   -1.612158   -0.278617
     14          6           0        4.089774   -0.487454    0.473544
     15          7           0        2.062660    0.965321    0.241221
     16          6           0        3.501591    0.844113    0.001275
     17          1           0       -2.967467    1.709413   -1.606544
     18          1           0       -2.943434   -0.710408   -2.271759
     19          1           0       -4.225333   -0.395236   -1.058120
     20          1           0       -2.893352   -2.454627   -0.477551
     21          1           0       -0.616852    1.935488   -1.084139
     22          1           0       -0.791117    0.591345   -2.216462
     23          1           0       -0.722626   -1.780618   -1.519807
     24          1           0       -0.560704   -2.244404    0.210784
     25          1           0       -3.877951    1.436234    0.714133
     26          1           0       -2.347611    2.368010    0.744840
     27          1           0       -0.217917    1.242373    1.588361
     28          1           0       -0.192956   -0.491017    1.967530
     29          1           0       -2.385141    0.599180    2.542888
     30          1           0       -3.878338   -1.042627    1.367127
     31          1           0       -2.354986   -1.826248    1.889576
     32          1           0        1.444628   -0.014594   -1.518377
     33          1           0        1.428542   -2.305330   -0.641379
     34          1           0        1.672120   -1.693479    1.040596
     35          1           0        3.607860   -1.537733   -1.370648
     36          1           0        3.763377   -2.604427    0.070400
     37          1           0        5.189333   -0.523056    0.280568
     38          1           0        3.937578   -0.603887    1.573471
     39          1           0        4.050546    1.644015    0.554869
     40          1           0        3.722569    0.984770   -1.084445
     41          6           0        1.682100    2.322325   -0.139296
     42          1           0        0.705119    2.620578    0.293198
     43          1           0        2.380104    3.076317    0.292158
     44          1           0        1.681701    2.454345   -1.246297
 ---------------------------------------------------------------------

 SCF Done:  E(RB3LYP) =  -680.762853135     A.U. after   15 cycles

 The electronic state is 1-A.
 Alpha  occ. eigenvalues --  -14.33107 -10.21768 -10.20862 -10.20533 -10.19890
 Alpha  occ. eigenvalues --  -10.18544 -10.18470 -10.18421 -10.18319 -10.18253
 Alpha  occ. eigenvalues --  -10.18178 -10.18022 -10.17937 -10.17826 -10.17751
 Alpha  occ. eigenvalues --  -10.17684 -10.17554  -0.92638  -0.86877  -0.79663
 Alpha  occ. eigenvalues --   -0.78409  -0.76551  -0.76401  -0.72869  -0.68812
 Alpha  occ. eigenvalues --   -0.66280  -0.66193  -0.62323  -0.61097  -0.57996
 Alpha  occ. eigenvalues --   -0.57413  -0.56539  -0.53995  -0.51505  -0.47901
 Alpha  occ. eigenvalues --   -0.46224  -0.45541  -0.45028  -0.44564  -0.44336
 Alpha  occ. eigenvalues --   -0.43819  -0.43120  -0.42264  -0.40672  -0.40162
 Alpha  occ. eigenvalues --   -0.39587  -0.39371  -0.38616  -0.38501  -0.38007
 Alpha  occ. eigenvalues --   -0.37779  -0.35857  -0.34766  -0.33057  -0.32647
 Alpha  occ. eigenvalues --   -0.32483  -0.32184  -0.31919  -0.31665  -0.30989
 Alpha  occ. eigenvalues --   -0.30197  -0.27771  -0.27684  -0.27181  -0.21652
 Alpha virt. eigenvalues --   -0.00747   0.00535   0.00930   0.01370   0.02294
 Alpha virt. eigenvalues --    0.02573   0.02677   0.03278   0.03521   0.04468
 Alpha virt. eigenvalues --    0.04685   0.05076   0.05604   0.05892   0.06326

 Mulliken atomic charges:
              1
     1  C    0.000388
     2  C   -0.397104
     3  C   -0.004518
     4  C   -0.253324
     5  C   -0.595547
     6  C   -0.836785
     7  C   -0.371728
     8  C   -0.151528
     9  C   -0.047329
    10  C   -0.395843
    11  C    0.470055
    12  C   -0.084413
    13  C   -0.289049
    14  C   -0.293315
    15  N    0.098649
    16  C   -0.148376
    17  H    0.114708
    18  H    0.128444
    19  H    0.127867
    20  H    0.115994
    21  H    0.133016
    22  H    0.138420
    23  H    0.140190
    24  H    0.146854
    25  H    0.130054
    26  H    0.127433
    27  H    0.142626
    28  H    0.141417
    29  H    0.115375
    30  H    0.128342
    31  H    0.129453
    32  H    0.102102
    33  H    0.141652
    34  H    0.146170
    35  H    0.136442
    36  H    0.131272
    37  H    0.129842
    38  H    0.144783
    39  H    0.125271
    40  H    0.123940
    41  C   -0.239002
    42  H    0.138842
    43  H    0.127602
    44  H    0.130662
 Sum of Mulliken atomic charges =   0.00000

 Dipole moment (field-independent basis, Debye):
    X=              0.1185    Y=             -0.0126    Z=             -0.3347  Tot=              0.3552
 Quadrupole moment (field-independent basis, Debye-Ang):
   XX=           -108.8723   YY=           -108.2371   ZZ=           -111.3938
   XY=             -0.0315   XZ=             -0.5124   YZ=             -0.1060

 Normal termination of Gaussian 09 at Mon Feb 19 02:56:59 2018.
