 Gaussian 09, Revision A.01,
 Gaussian 09:  EM64L-G09RevA.01  8-May-2009

 -------------------
 # b3lyp/6-31+g(d,p)
 -------------------

 ---------------------------------------
 3,3-Dimethil-N-methylpyrrolidine-NI.hin
 ---------------------------------------
 Symbolic Z-matrix:
 Charge =  0 Multiplicity = 1

                         Standard orientation:
 ---------------------------------------------------------------------
 Center     Atomic      Atomic             Coordinates (Angstroms)
 Number     Number       Type             X           Y           Z
 ---------------------------------------------------------------------
      1          6           0       -1.020748   -0.092930   -0.005888
      2          6           0       -0.506805    1.312776   -0.383576
      3          6           0        0.984299    1.275770   -0.011264
      4          6           0        0.194290   -0.976604   -0.352120
      5          7           0        1.317923   -0.117940   -0.104208
      6          6           0        2.654210   -0.615678    0.041938
      7          1           0       -1.063693    2.133645    0.125969
      8          1           0       -0.603265    1.461760   -1.485359
      9          6           0       -2.275050   -0.493927   -0.796891
     10          6           0       -1.322626   -0.162699    1.504604
     11          1           0        1.153848    1.618270    1.036128
     12          1           0        1.605026    1.885176   -0.709195
     13          1           0        0.203602   -1.254621   -1.431422
     14          1           0        0.242036   -1.900784    0.268747
     15          1           0        2.858267   -1.388937   -0.732915
     16          1           0        3.395852    0.206755   -0.073784
     17          1           0        2.769998   -1.067030    1.053159
     18          1           0       -2.098639   -0.454440   -1.895911
     19          1           0       -3.123965    0.190169   -0.568889
     20          1           0       -2.589106   -1.532558   -0.545348
     21          1           0       -2.138626    0.542397    1.783228
     22          1           0       -0.432977    0.091292    2.124009
     23          1           0       -1.649247   -1.185767    1.800228
 ---------------------------------------------------------------------

 SCF Done:  E(RB3LYP) =  -330.540488545     A.U. after   12 cycles

 The electronic state is 1-A.
 Alpha  occ. eigenvalues --  -14.30902 -10.20863 -10.20853 -10.20639 -10.20060
 Alpha  occ. eigenvalues --  -10.18636 -10.18198 -10.18089  -0.92958  -0.81045
 Alpha  occ. eigenvalues --   -0.73915  -0.69978  -0.68160  -0.64506  -0.56355
 Alpha  occ. eigenvalues --   -0.54281  -0.48298  -0.47825  -0.44351  -0.43693
 Alpha  occ. eigenvalues --   -0.41737  -0.41270  -0.40377  -0.38326  -0.36839
 Alpha  occ. eigenvalues --   -0.36598  -0.35633  -0.35310  -0.32371  -0.32015
 Alpha  occ. eigenvalues --   -0.31492  -0.18087
 Alpha virt. eigenvalues --    0.00102   0.01486   0.02519   0.02607   0.04002
 Alpha virt. eigenvalues --    0.04587   0.04682   0.05065   0.05740   0.06401
 Alpha virt. eigenvalues --    0.06869   0.07756   0.08291   0.09123   0.09177

 Mulliken atomic charges:
              1
     1  C    0.259082
     2  C   -0.298420
     3  C   -0.247316
     4  C   -0.297632
     5  N   -0.128750
     6  C   -0.267356
     7  H    0.139210
     8  H    0.140465
     9  C   -0.479576
    10  C   -0.557571
    11  H    0.120980
    12  H    0.116709
    13  H    0.116494
    14  H    0.122718
    15  H    0.129308
    16  H    0.132823
    17  H    0.129906
    18  H    0.142087
    19  H    0.143746
    20  H    0.143862
    21  H    0.142149
    22  H    0.154242
    23  H    0.142839
 Sum of Mulliken atomic charges =   0.00000

 Dipole moment (field-independent basis, Debye):
    X=             -0.1350    Y=              0.1032    Z=             -0.0508  Tot=              0.1774
 Quadrupole moment (field-independent basis, Debye-Ang):
   XX=            -53.5351   YY=            -53.5870   ZZ=            -54.5943
   XY=             -0.1112   XZ=             -0.3380   YZ=             -0.2909

 Normal termination of Gaussian 09 at Mon Feb 19 01:23:26 2018.
