 Gaussian 09, Revision A.01,
 Gaussian 09:  EM64L-G09RevA.01  8-May-2009

 -------------------
 # b3lyp/6-31+g(d,p)
 -------------------

 ---------------------------------------
 3,3-Dimethil-N-methylpyrrolidine-lp.hin
 ---------------------------------------
 Symbolic Z-matrix:
 Charge =  0 Multiplicity = 1

                         Standard orientation:
 ---------------------------------------------------------------------
 Center     Atomic      Atomic             Coordinates (Angstroms)
 Number     Number       Type             X           Y           Z
 ---------------------------------------------------------------------
      1          6           0       -1.023848   -0.075601   -0.021194
      2          6           0       -0.490587    1.372965    0.075107
      3          6           0        1.042331    1.231860    0.023897
      4          6           0        0.238061   -0.863636   -0.426039
      5          7           0        1.300880   -0.173667    0.278539
      6          6           0        2.631921   -0.601230   -0.103559
      7          1           0       -0.821024    1.867551    1.018353
      8          1           0       -0.849094    2.002857   -0.772749
      9          6           0       -2.149336   -0.228586   -1.055826
     10          6           0       -1.524675   -0.552357    1.357407
     11          1           0        1.558175    1.874326    0.776761
     12          1           0        1.408362    1.515581   -0.992625
     13          1           0        0.400169   -0.799241   -1.528591
     14          1           0        0.185261   -1.939793   -0.137678
     15          1           0        2.816753   -0.451705   -1.192652
     16          1           0        3.396548   -0.027955    0.470078
     17          1           0        2.767825   -1.681853    0.133267
     18          1           0       -1.824878    0.108282   -2.066799
     19          1           0       -3.039164    0.376856   -0.768826
     20          1           0       -2.468432   -1.292220   -1.142833
     21          1           0       -2.402426    0.045182    1.694314
     22          1           0       -0.735649   -0.463083    2.138748
     23          1           0       -1.841780   -1.619602    1.322700
 ---------------------------------------------------------------------

 SCF Done:  E(RB3LYP) =  -330.550413015     A.U. after   12 cycles

 The electronic state is 1-A.
 Alpha  occ. eigenvalues --  -14.32794 -10.20915 -10.20880 -10.20648 -10.19961
 Alpha  occ. eigenvalues --  -10.18535 -10.18244 -10.17673  -0.94045  -0.81095
 Alpha  occ. eigenvalues --   -0.73733  -0.69643  -0.67957  -0.64322  -0.57358
 Alpha  occ. eigenvalues --   -0.54132  -0.48644  -0.47752  -0.44480  -0.43725
 Alpha  occ. eigenvalues --   -0.42088  -0.40760  -0.40513  -0.38717  -0.36782
 Alpha  occ. eigenvalues --   -0.35710  -0.35204  -0.34772  -0.32109  -0.31626
 Alpha  occ. eigenvalues --   -0.31417  -0.21796
 Alpha virt. eigenvalues --    0.00334   0.01513   0.02486   0.02571   0.04016
 Alpha virt. eigenvalues --    0.04381   0.04588   0.04881   0.05792   0.06460
 Alpha virt. eigenvalues --    0.06983   0.07877   0.08376   0.09072   0.09358

 Mulliken atomic charges:
              1
     1  C    0.242173
     2  C   -0.299641
     3  C   -0.286412
     4  C   -0.375466
     5  N   -0.041585
     6  C   -0.281367
     7  H    0.144754
     8  H    0.140079
     9  C   -0.545353
    10  C   -0.476652
    11  H    0.131495
    12  H    0.120487
    13  H    0.118723
    14  H    0.134531
    15  H    0.123564
    16  H    0.136960
    17  H    0.135936
    18  H    0.142818
    19  H    0.145540
    20  H    0.143275
    21  H    0.140880
    22  H    0.168302
    23  H    0.136959
 Sum of Mulliken atomic charges =   0.00000

 Dipole moment (field-independent basis, Debye):
    X=              0.0000    Y=              0.1521    Z=             -0.4775  Tot=              0.5011
 Quadrupole moment (field-independent basis, Debye-Ang):
   XX=            -53.2406   YY=            -52.5152   ZZ=            -55.6295
   XY=             -0.2114   XZ=             -0.2710   YZ=              0.6440

 Normal termination of Gaussian 09 at Mon Feb 19 01:22:14 2018.
