 Gaussian 09, Revision A.01,
 Gaussian 09:  EM64L-G09RevA.01  8-May-2009

 -------------------
 # b3lyp/6-31+g(d,p)
 -------------------

 ----------------------------------------
 3,3-Dimethil-N-methylpyrrolidine-nlp.hin
 ----------------------------------------
 Symbolic Z-matrix:
 Charge =  0 Multiplicity = 1

                         Standard orientation:
 ---------------------------------------------------------------------
 Center     Atomic      Atomic             Coordinates (Angstroms)
 Number     Number       Type             X           Y           Z
 ---------------------------------------------------------------------
      1          6           0       -1.021925   -0.077343   -0.020895
      2          6           0       -0.495696    1.375622    0.009877
      3          6           0        1.038240    1.238443    0.024400
      4          6           0        0.228584   -0.861367   -0.459694
      5          7           0        1.288377   -0.171410    0.240364
      6          6           0        2.624854   -0.607403   -0.093563
      7          1           0       -0.873629    1.933395    0.898496
      8          1           0       -0.816823    1.939745   -0.897329
      9          6           0       -2.192301   -0.269630   -0.996884
     10          6           0       -1.451333   -0.516016    1.393950
     11          1           0        1.513841    1.837575    0.835632
     12          1           0        1.458553    1.561385   -0.958526
     13          1           0        0.380471   -0.785073   -1.562744
     14          1           0        0.185899   -1.936584   -0.169585
     15          1           0        2.845153   -0.459727   -1.176073
     16          1           0        3.367016   -0.037906    0.510784
     17          1           0        2.738644   -1.687138    0.154303
     18          1           0       -1.915680    0.031351   -2.033027
     19          1           0       -3.070437    0.343424   -0.690722
     20          1           0       -2.510184   -1.336582   -1.031734
     21          1           0       -2.322105    0.079441    1.751923
     22          1           0       -0.629170   -0.388985    2.134877
     23          1           0       -1.752720   -1.588283    1.408032
 ---------------------------------------------------------------------

 SCF Done:  E(RB3LYP) =  -330.549927641     A.U. after   12 cycles

 The electronic state is 1-A.
 Alpha  occ. eigenvalues --  -14.32521 -10.20868 -10.20829 -10.20620 -10.19919
 Alpha  occ. eigenvalues --  -10.18544 -10.18205 -10.17621  -0.94081  -0.81092
 Alpha  occ. eigenvalues --   -0.73772  -0.69741  -0.67919  -0.64390  -0.57146
 Alpha  occ. eigenvalues --   -0.54162  -0.48670  -0.47772  -0.44518  -0.43838
 Alpha  occ. eigenvalues --   -0.42085  -0.40663  -0.40444  -0.38707  -0.36782
 Alpha  occ. eigenvalues --   -0.35847  -0.35223  -0.34827  -0.32132  -0.31586
 Alpha  occ. eigenvalues --   -0.31491  -0.21360
 Alpha virt. eigenvalues --    0.00309   0.01521   0.02505   0.02558   0.04052
 Alpha virt. eigenvalues --    0.04411   0.04585   0.04897   0.05758   0.06470
 Alpha virt. eigenvalues --    0.06955   0.07879   0.08454   0.09089   0.09387

 Mulliken atomic charges:
              1
     1  C    0.226881
     2  C   -0.287202
     3  C   -0.286719
     4  C   -0.394141
     5  N   -0.030702
     6  C   -0.279720
     7  H    0.143886
     8  H    0.139765
     9  C   -0.534769
    10  C   -0.470324
    11  H    0.131200
    12  H    0.118943
    13  H    0.117569
    14  H    0.134029
    15  H    0.122431
    16  H    0.136749
    17  H    0.135373
    18  H    0.141981
    19  H    0.145275
    20  H    0.143044
    21  H    0.140309
    22  H    0.169477
    23  H    0.136664
 Sum of Mulliken atomic charges =   0.00000

 Dipole moment (field-independent basis, Debye):
    X=              0.0041    Y=              0.1331    Z=             -0.4000  Tot=              0.4216
 Quadrupole moment (field-independent basis, Debye-Ang):
   XX=            -53.4193   YY=            -52.6031   ZZ=            -55.4542
   XY=             -0.2695   XZ=             -0.1327   YZ=              0.6158

 Normal termination of Gaussian 09 at Mon Feb 19 01:24:40 2018.
