 Gaussian 09, Revision A.01,
 Gaussian 09:  EM64L-G09RevA.01  8-May-2009

 -------------------
 # b3lyp/6-31+g(d,p)
 -------------------

 -----------
 acetone.hin
 -----------
 Symbolic Z-matrix:
 Charge =  0 Multiplicity = 1

                         Standard orientation:
 ---------------------------------------------------------------------
 Center     Atomic      Atomic             Coordinates (Angstroms)
 Number     Number       Type             X           Y           Z
 ---------------------------------------------------------------------
      1          6           0        1.290561   -0.612951    0.000178
      2          6           0       -0.000343    0.183864   -0.000536
      3          8           0        0.001022    1.394279    0.000033
      4          6           0       -1.291308   -0.612011   -0.000109
      5          1           0        1.288798   -1.345457   -0.838569
      6          1           0        2.175887    0.052375   -0.121559
      7          1           0        1.396914   -1.163380    0.962663
      8          1           0       -1.387214   -1.183865   -0.950960
      9          1           0       -1.300172   -1.325897    0.854461
     10          1           0       -2.175853    0.058578    0.096501
 ---------------------------------------------------------------------

 SCF Done:  E(RB3LYP) =  -193.172665047     A.U. after   11 cycles

 The electronic state is 1-A.
 Alpha  occ. eigenvalues --  -19.15234 -10.28930 -10.20470 -10.20461  -1.05390
 Alpha  occ. eigenvalues --   -0.77437  -0.71393  -0.53836  -0.46767  -0.46437
 Alpha  occ. eigenvalues --   -0.45532  -0.41111  -0.39839  -0.38270  -0.36016
 Alpha  occ. eigenvalues --   -0.25784
 Alpha virt. eigenvalues --   -0.02646  -0.00060   0.02660   0.04495   0.04742
 Alpha virt. eigenvalues --    0.05340   0.06978   0.07628   0.08996   0.10023
 Alpha virt. eigenvalues --    0.10350   0.11457   0.13971   0.16981   0.19517

 Mulliken atomic charges:
              1
     1  C   -0.501416
     2  C    0.409176
     3  O   -0.418123
     4  C   -0.501628
     5  H    0.158694
     6  H    0.180829
     7  H    0.166304
     8  H    0.165630
     9  H    0.159696
    10  H    0.180839
 Sum of Mulliken atomic charges =   0.00000

 Dipole moment (field-independent basis, Debye):
    X=             -0.0034    Y=             -3.1058    Z=              0.0034  Tot=              3.1059
 Quadrupole moment (field-independent basis, Debye-Ang):
   XX=            -23.9542   YY=            -29.7987   ZZ=            -24.4084
   XY=             -0.0004   XZ=              0.0403   YZ=             -0.0042

 1\1\GINC-ROCK\SP\RB3LYP\6-31+G(d,p)\C3H6O1\STYLIANAKIS\19-Feb-2018\0\\
 # b3lyp/6-31+g(d,p)\\acetone.hin\\0,1\C,0,-1.26578,-1.13057,-0.03887\C
 ,0,-1.31812,0.38553,-0.03203\O,0,-2.36805,0.98456,-0.09462\C,0,0.01032
 ,1.11192,0.05522\H,0,-0.68232,-1.49746,0.83579\H,0,-2.28801,-1.5702,0.
 01638\H,0,-0.78108,-1.48991,-0.97514\H,0,0.49407,0.90575,1.03696\H,0,0
 .68696,0.77091,-0.76079\H,0,-0.12749,2.21316,-0.04338\\Version=EM64L-G
 09RevA.01\State=1-A\HF=-193.172665\RMSD=4.762e-09\Dipole=1.0600302,-0.
 6047387,0.0612861\Quadrupole=-1.7075084,0.4924283,1.2150801,1.8657725,

 Normal termination of Gaussian 09 at Mon Feb 19 01:24:58 2018.
