 Gaussian 09, Revision A.01,
 Gaussian 09:  EM64L-G09RevA.01  8-May-2009

 -------------------
 # b3lyp/6-31+g(d,p)
 -------------------

 ---------------
 acetone-ecl.hin
 ---------------
 Symbolic Z-matrix:
 Charge =  0 Multiplicity = 1

                         Standard orientation:
 ---------------------------------------------------------------------
 Center     Atomic      Atomic             Coordinates (Angstroms)
 Number     Number       Type             X           Y           Z
 ---------------------------------------------------------------------
      1          6           0       -1.291129   -0.616518    0.000054
      2          6           0        0.001076    0.177988   -0.000375
      3          8           0       -0.011479    1.388386    0.000091
      4          6           0        1.301279   -0.602772    0.000052
      5          1           0       -1.889826   -0.367400    0.905461
      6          1           0       -1.889666   -0.368481   -0.905751
      7          1           0       -1.095717   -1.712772    0.000686
      8          1           0        2.180519    0.081208   -0.000538
      9          1           0        1.359671   -1.245266    0.907748
     10          1           0        1.359495   -1.246562   -0.906728
 ---------------------------------------------------------------------

 SCF Done:  E(RB3LYP) =  -193.171854162     A.U. after   11 cycles

 The electronic state is 1-A.
 Alpha  occ. eigenvalues --  -19.15102 -10.28926 -10.20468 -10.20461  -1.05340
 Alpha  occ. eigenvalues --   -0.77316  -0.71456  -0.53806  -0.46547  -0.46384
 Alpha  occ. eigenvalues --   -0.45650  -0.41347  -0.40039  -0.38152  -0.35605
 Alpha  occ. eigenvalues --   -0.25772
 Alpha virt. eigenvalues --   -0.02754  -0.00092   0.02672   0.04419   0.04767
 Alpha virt. eigenvalues --    0.05167   0.07100   0.07397   0.08997   0.09963
 Alpha virt. eigenvalues --    0.10772   0.11572   0.13747   0.16482   0.19028

 Mulliken atomic charges:
              1
     1  C   -0.475565
     2  C    0.375981
     3  O   -0.405548
     4  C   -0.518500
     5  H    0.181836
     6  H    0.181807
     7  H    0.147986
     8  H    0.179778
     9  H    0.166147
    10  H    0.166077
 Sum of Mulliken atomic charges =   0.00000

 Dipole moment (field-independent basis, Debye):
    X=             -0.0309    Y=             -3.0498    Z=             -0.0002  Tot=              3.0500
 Quadrupole moment (field-independent basis, Debye-Ang):
   XX=            -23.8063   YY=            -29.9276   ZZ=            -24.3377
   XY=             -0.0203   XZ=              0.0003   YZ=             -0.0005

 1\1\GINC-ROCK\SP\RB3LYP\6-31+G(d,p)\C3H6O1\STYLIANAKIS\19-Feb-2018\0\\
 # b3lyp/6-31+g(d,p)\\acetone-ecl.hin\\0,1\C,0,-1.30491,-1.09061,0.2571
 7\C,0,-1.29699,0.36699,-0.1628\O,0,-2.32343,0.93553,-0.46013\C,0,0.042
 23,1.07811,-0.19298\H,0,-1.94109,-1.22175,1.16179\H,0,-1.71504,-1.7203
 4,-0.56471\H,0,-0.27894,-1.45175,0.49575\H,0,-0.07315,2.13838,-0.51455
 \H,0,0.50137,1.06921,0.82153\H,0,0.72783,0.56934,-0.90797\\Version=EM6
 4L-G09RevA.01\State=1-A\HF=-193.1718542\RMSD=6.744e-09\Dipole=1.004574
 8,-0.5840286,0.2993378\Quadrupole=-1.5748172,0.5658226,1.0089946,1.854

 Normal termination of Gaussian 09 at Mon Feb 19 01:24:49 2018.
