 Gaussian 09, Revision C.01,
 Gaussian 09:  AM64L-G09RevC.01 23-Sep-2011

 -------------------
 # b3lyp/6-31+g(d,p)
 -------------------

 99/5=1,9=1/99;
 ----------------
 Adamantyl-CMe2Cl
 ----------------
 Charge =  0 Multiplicity = 1

                         Standard orientation:
 ---------------------------------------------------------------------
 Center     Atomic      Atomic             Coordinates (Angstroms)
 Number     Number       Type             X           Y           Z
 ---------------------------------------------------------------------
      1          6           0        2.136071   -1.591548    0.000313
      2          6           0        1.717545   -0.806384   -1.248826
      3          6           0        0.193103   -0.611752   -1.253229
      4          6           0        1.717611   -0.805850    1.249136
      5          6           0        0.193167   -0.611224    1.253528
      6          6           0       -0.276411    0.168805   -0.000002
      7          6           0        2.409320    0.562857   -1.252294
      8          6           0        1.986320    1.341649   -0.000311
      9          6           0        0.460042    1.536543   -0.000307
     10          6           0        2.409387    0.563392    1.251983
     11          6           0       -1.831108    0.394182   -0.000001
     12          6           0       -2.360490    1.112689    1.244998
     13          6           0       -2.360508    1.112698   -1.244990
     14         17           0       -2.678668   -1.253641    0.000000
     15          1           0        3.212291   -1.754195    0.000321
     16          1           0        1.666552   -2.573058    0.000536
     17          1           0        1.998784   -1.360758   -2.141363
     18          1           0       -0.296837   -1.577884   -1.293749
     19          1           0       -0.083729   -0.076618   -2.156150
     20          1           0        1.998896   -1.359842    2.141896
     21          1           0       -0.083635   -0.075716    2.156239
     22          1           0       -0.296761   -1.577343    1.294474
     23          1           0        2.139333    1.117397   -2.149262
     24          1           0        3.490544    0.440499   -1.269877
     25          1           0        2.459028    2.321444   -0.000533
     26          1           0        0.182544    2.118859   -0.873674
     27          1           0        0.182604    2.119215    0.872839
     28          1           0        3.490612    0.441042    1.269559
     29          1           0        2.139448    1.118315    2.148727
     30          1           0       -3.439220    1.189169    1.187195
     31          1           0       -2.115783    0.589718    2.158200
     32          1           0       -1.958275    2.118194    1.299015
     33          1           0       -3.439223    1.189316   -1.187099
     34          1           0       -1.958170    2.118151   -1.299082
     35          1           0       -2.115947    0.589661   -2.158191
 ---------------------------------------------------------------------

 SCF Done:  E(RB3LYP) =  -968.295853054     A.U. after   14 cycles

 The electronic state is 1-A.
 Alpha  occ. eigenvalues -- -101.52299 -10.25940 -10.20707 -10.18762 -10.18433
 Alpha  occ. eigenvalues --  -10.18432 -10.18415 -10.18415 -10.18364 -10.17681
 Alpha  occ. eigenvalues --  -10.17680 -10.17500 -10.17499 -10.17464  -9.43845
 Alpha  occ. eigenvalues --   -7.20190  -7.19301  -7.19291  -0.88582  -0.85509
 Alpha  occ. eigenvalues --   -0.77861  -0.77294  -0.77236  -0.74633  -0.70489
 Alpha  occ. eigenvalues --   -0.67315  -0.66948  -0.61526  -0.58779  -0.58649
 Alpha  occ. eigenvalues --   -0.54294  -0.52581  -0.46935  -0.46251  -0.45827
 Alpha  occ. eigenvalues --   -0.45621  -0.45218  -0.43849  -0.43179  -0.41564
 Alpha  occ. eigenvalues --   -0.41263  -0.40791  -0.39781  -0.39511  -0.38155
 Alpha  occ. eigenvalues --   -0.36713  -0.36552  -0.35949  -0.33219  -0.33017
 Alpha  occ. eigenvalues --   -0.32814  -0.32636  -0.32511  -0.29905  -0.28800
 Alpha  occ. eigenvalues --   -0.28522  -0.28031  -0.27947
 Alpha virt. eigenvalues --   -0.00975   0.00790   0.01313   0.01376   0.01770
 Alpha virt. eigenvalues --    0.02939   0.02989   0.03518   0.03678   0.04069
 Alpha virt. eigenvalues --    0.05834   0.05955   0.06238   0.06577   0.06589

 Mulliken atomic charges:
              1
     1  C   -0.383946
     2  C    0.022194
     3  C   -0.298297
     4  C    0.022183
     5  C   -0.298299
     6  C   -0.313173
     7  C   -0.381871
     8  C    0.041071
     9  C   -0.381764
    10  C   -0.381867
    11  C    0.291187
    12  C   -0.441639
    13  C   -0.441610
    14  Cl  -0.017527
    15  H    0.130627
    16  H    0.135314
    17  H    0.117747
    18  H    0.164460
    19  H    0.130324
    20  H    0.117747
    21  H    0.130317
    22  H    0.164462
    23  H    0.130179
    24  H    0.131839
    25  H    0.117964
    26  H    0.137206
    27  H    0.137213
    28  H    0.131840
    29  H    0.130178
    30  H    0.162911
    31  H    0.162644
    32  H    0.152416
    33  H    0.162906
    34  H    0.152411
    35  H    0.162654
 Sum of Mulliken atomic charges =   0.00000

 Dipole moment (field-independent basis, Debye):
    X=              1.4279    Y=              1.8967    Z=              0.0000  Tot=              2.3741
 Quadrupole moment (field-independent basis, Debye-Ang):
   XX=           -100.2228   YY=            -96.3897   ZZ=            -95.0514
   XY=             -5.2287   XZ=              0.0001   YZ=              0.0000

 Normal termination of Gaussian 09 at Thu Jul  5 18:57:10 2018.
