 Gaussian 09, Revision C.01,
 Gaussian 09:  AM64L-G09RevC.01 23-Sep-2011

 ------------------------------------
 # opt=modredundant b3lyp/6-31+g(d,p)
 ------------------------------------

 99/9=1/99;
 -------------------
 Adamantyl-CMe2Cl-ts
 -------------------
 Charge =  0 Multiplicity = 1

 SCF Done:  E(RB3LYP) =  -968.275878914     A.U. after   14 cycles
 SCF Done:  E(RB3LYP) =  -968.283385758     A.U. after   13 cycles
 SCF Done:  E(RB3LYP) =  -968.283705811     A.U. after   11 cycles
 SCF Done:  E(RB3LYP) =  -968.283802577     A.U. after   11 cycles
 SCF Done:  E(RB3LYP) =  -968.283851123     A.U. after   10 cycles
 SCF Done:  E(RB3LYP) =  -968.283870597     A.U. after   10 cycles
 SCF Done:  E(RB3LYP) =  -968.283871908     A.U. after    9 cycles
 SCF Done:  E(RB3LYP) =  -968.283872487     A.U. after    9 cycles
 SCF Done:  E(RB3LYP) =  -968.283872574     A.U. after    8 cycles
 Optimization completed.
    -- Stationary point found.

                         Standard orientation:
 ---------------------------------------------------------------------
 Center     Atomic      Atomic             Coordinates (Angstroms)
 Number     Number       Type             X           Y           Z
 ---------------------------------------------------------------------
      1          6           0       -2.274099    0.878853    1.258138
      2          6           0       -1.668090    1.529372    0.000605
      3          6           0       -0.136170    1.338705    0.000561
      4          6           0       -1.938457   -0.624058    1.253116
      5          6           0       -0.405522   -0.813955    1.253415
      6          6           0        0.259438   -0.166204    0.000042
      7          6           0       -2.273995    0.879908   -1.257519
      8          6           0       -1.938320   -0.622998   -1.253707
      9          6           0       -0.405384   -0.812874   -1.253974
     10          6           0       -2.542031   -1.284393   -0.000605
     11          6           0        1.858986   -0.400592   -0.000035
     12          6           0        2.399433   -1.119635    1.244839
     13          6           0        2.399349   -1.119692   -1.244891
     14         17           0        2.793930    1.240321    0.000017
     15          1           0       -3.362521    1.024521    1.277087
     16          1           0       -1.871335    1.354243    2.162633
     17          1           0       -1.882162    2.606073    0.001049
     18          1           0        0.291870    1.834288    0.878026
     19          1           0        0.291884    1.834882   -0.876553
     20          1           0       -2.346639   -1.098870    2.155085
     21          1           0       -0.184684   -1.887526    1.289268
     22          1           0        0.004786   -0.371428    2.167838
     23          1           0       -1.871159    1.356055   -2.161582
     24          1           0       -3.362419    1.025572   -1.276437
     25          1           0       -2.346387   -1.097072   -2.156117
     26          1           0        0.005050   -0.369522   -2.167947
     27          1           0       -0.184536   -1.886407   -1.290753
     28          1           0       -3.634569   -1.172862   -0.000618
     29          1           0       -2.330417   -2.362446   -0.001048
     30          1           0        3.486713   -1.201089    1.174276
     31          1           0        2.162271   -0.590639    2.169288
     32          1           0        1.988977   -2.132920    1.307499
     33          1           0        3.486636   -1.201127   -1.174402
     34          1           0        1.988903   -2.132994   -1.307411
     35          1           0        2.162092   -0.590799   -2.169372
 ---------------------------------------------------------------------

 The electronic state is 1-A.
 Alpha  occ. eigenvalues -- -101.52008 -10.26537 -10.21351 -10.19000 -10.18999
 Alpha  occ. eigenvalues --  -10.18835 -10.18834 -10.18650 -10.18497 -10.18496
 Alpha  occ. eigenvalues --  -10.18152 -10.17960 -10.17960 -10.17732  -9.43539
 Alpha  occ. eigenvalues --   -7.19889  -7.18993  -7.18985  -0.87954  -0.84924
 Alpha  occ. eigenvalues --   -0.77565  -0.77224  -0.76858  -0.74449  -0.70359
 Alpha  occ. eigenvalues --   -0.66864  -0.66718  -0.61075  -0.58518  -0.58479
 Alpha  occ. eigenvalues --   -0.54125  -0.52510  -0.46735  -0.46459  -0.45643
 Alpha  occ. eigenvalues --   -0.45378  -0.44680  -0.43563  -0.43103  -0.41088
 Alpha  occ. eigenvalues --   -0.40779  -0.40420  -0.39491  -0.39274  -0.38631
 Alpha  occ. eigenvalues --   -0.36845  -0.36553  -0.35710  -0.33291  -0.33021
 Alpha  occ. eigenvalues --   -0.32703  -0.32479  -0.32317  -0.29383  -0.29057
 Alpha  occ. eigenvalues --   -0.28434  -0.27992  -0.27686
 Alpha virt. eigenvalues --   -0.01074   0.00106   0.01146   0.01324   0.01780
 Alpha virt. eigenvalues --    0.02944   0.02951   0.03372   0.03601   0.03988
 Alpha virt. eigenvalues --    0.05274   0.05788   0.05860   0.06563   0.06869

 Mulliken atomic charges:
              1
     1  C   -0.311770
     2  C    0.053988
     3  C   -0.548468
     4  C   -0.006936
     5  C   -0.485401
     6  C   -0.086851
     7  C   -0.311807
     8  C   -0.006933
     9  C   -0.485512
    10  C   -0.299379
    11  C    0.597470
    12  C   -0.495356
    13  C   -0.495113
    14  Cl  -0.084761
    15  H    0.130588
    16  H    0.132314
    17  H    0.119491
    18  H    0.162033
    19  H    0.162054
    20  H    0.118056
    21  H    0.134214
    22  H    0.140178
    23  H    0.132316
    24  H    0.130586
    25  H    0.118054
    26  H    0.140178
    27  H    0.134206
    28  H    0.131802
    29  H    0.129069
    30  H    0.162453
    31  H    0.161435
    32  H    0.151959
    33  H    0.162453
    34  H    0.151965
    35  H    0.161424
 Sum of Mulliken atomic charges =   0.00000

 Dipole moment (field-independent basis, Debye):
    X=             -1.5905    Y=             -1.9185    Z=              0.0000  Tot=              2.4921
 Quadrupole moment (field-independent basis, Debye-Ang):
   XX=           -101.3276   YY=            -96.6739   ZZ=            -95.1566
   XY=             -5.5294   XZ=             -0.0002   YZ=              0.0001

 Normal termination of Gaussian 09 at Thu Jul  5 18:51:25 2018.
