 Gaussian 09, Revision C.01,
 Gaussian 09:  AM64L-G09RevC.01 23-Sep-2011

 ------------------------------------
 # opt=modredundant b3lyp/6-31+g(d,p)
 ------------------------------------

 99/9=1/99;
 ----------------------
 bicyclooctyl-CMe2Cl-ts
 ----------------------
 Charge =  0 Multiplicity = 1

 SCF Done:  E(RB3LYP) =  -890.836117743     A.U. after   14 cycles
 SCF Done:  E(RB3LYP) =  -890.844216809     A.U. after   12 cycles
 SCF Done:  E(RB3LYP) =  -890.844598755     A.U. after   11 cycles
 SCF Done:  E(RB3LYP) =  -890.844699382     A.U. after   11 cycles
 SCF Done:  E(RB3LYP) =  -890.844749997     A.U. after   10 cycles
 SCF Done:  E(RB3LYP) =  -890.844769074     A.U. after   10 cycles
 SCF Done:  E(RB3LYP) =  -890.844773231     A.U. after    9 cycles
 SCF Done:  E(RB3LYP) =  -890.844774489     A.U. after    9 cycles
 SCF Done:  E(RB3LYP) =  -890.844775484     A.U. after    9 cycles
 SCF Done:  E(RB3LYP) =  -890.844776327     A.U. after    9 cycles
 SCF Done:  E(RB3LYP) =  -890.844776796     A.U. after    9 cycles
 SCF Done:  E(RB3LYP) =  -890.844777084     A.U. after    9 cycles
 Optimization completed.
    -- Stationary point found.

                         Standard orientation:
 ---------------------------------------------------------------------
 Center     Atomic      Atomic             Coordinates (Angstroms)
 Number     Number       Type             X           Y           Z
 ---------------------------------------------------------------------
      1          6           0       -2.310295   -0.717482   -1.145393
      2          6           0       -0.757406   -0.801365   -1.239853
      3          6           0       -2.719084    0.219609    0.000428
      4          6           0       -0.075075   -0.142198   -0.003312
      5          6           0       -1.994699    1.561232   -0.179367
      6          6           0       -0.457986    1.366101   -0.025624
      7          6           0       -2.267322   -0.405643    1.327944
      8          6           0       -0.750591   -0.754601    1.262729
      9          6           0        1.517853   -0.397220    0.003192
     10          6           0        2.049425   -1.117320   -1.246502
     11         17           0        2.475875    1.230939    0.001762
     12          6           0        2.050360   -1.129544    1.242990
     13          1           0       -2.736387   -1.713990   -0.974405
     14          1           0       -2.726330   -0.359549   -2.094462
     15          1           0       -0.414256   -0.300358   -2.150879
     16          1           0       -0.459335   -1.849879   -1.327831
     17          1           0       -3.805781    0.368163    0.000246
     18          1           0       -2.357871    2.287884    0.557043
     19          1           0       -2.230419    1.975518   -1.167622
     20          1           0       -0.102798    1.837806    0.895484
     21          1           0        0.063108    1.867614   -0.843986
     22          1           0       -2.852566   -1.308058    1.541479
     23          1           0       -2.462997    0.294408    2.149631
     24          1           0       -0.623204   -1.843030    1.254116
     25          1           0       -0.257038   -0.388791    2.166435
     26          1           0        3.138755   -1.180330   -1.194130
     27          1           0        1.655995   -2.138018   -1.295130
     28          1           0        1.786253   -0.598701   -2.169954
     29          1           0        3.132122   -1.255176    1.153395
     30          1           0        1.852526   -0.586271    2.168210
     31          1           0        1.599260   -2.124615    1.319019
 ---------------------------------------------------------------------

 The electronic state is 1-A.
 Alpha  occ. eigenvalues -- -101.52022 -10.26613 -10.21352 -10.18890 -10.18849
 Alpha  occ. eigenvalues --  -10.18750 -10.18684 -10.18641 -10.18417 -10.18371
 Alpha  occ. eigenvalues --  -10.18029 -10.17880  -9.43560  -7.19909  -7.19013
 Alpha  occ. eigenvalues --   -7.19005  -0.87319  -0.84141  -0.76682  -0.74488
 Alpha  occ. eigenvalues --   -0.74402  -0.73448  -0.69962  -0.61372  -0.61284
 Alpha  occ. eigenvalues --   -0.60886  -0.55350  -0.50538  -0.48402  -0.47978
 Alpha  occ. eigenvalues --   -0.47916  -0.44999  -0.43585  -0.42856  -0.40881
 Alpha  occ. eigenvalues --   -0.40325  -0.38435  -0.38295  -0.37932  -0.37605
 Alpha  occ. eigenvalues --   -0.37283  -0.36022  -0.35290  -0.34881  -0.34157
 Alpha  occ. eigenvalues --   -0.32387  -0.29936  -0.29390  -0.28961  -0.28137
 Alpha  occ. eigenvalues --   -0.27795
 Alpha virt. eigenvalues --   -0.00735   0.00197   0.01168   0.01701   0.02014
 Alpha virt. eigenvalues --    0.03208   0.03294   0.04026   0.04157   0.04308
 Alpha virt. eigenvalues --    0.05449   0.06303   0.06462   0.07162   0.07398

 Mulliken atomic charges:
              1
     1  C   -0.470612
     2  C   -0.388987
     3  C    0.101433
     4  C    0.104676
     5  C   -0.398798
     6  C   -0.439022
     7  C   -0.460190
     8  C   -0.406210
     9  C    0.606435
    10  C   -0.477221
    11  Cl  -0.087646
    12  C   -0.465296
    13  H    0.135895
    14  H    0.139053
    15  H    0.144627
    16  H    0.135380
    17  H    0.117641
    18  H    0.138370
    19  H    0.136575
    20  H    0.161157
    21  H    0.164636
    22  H    0.137443
    23  H    0.138158
    24  H    0.138360
    25  H    0.141023
    26  H    0.163780
    27  H    0.151202
    28  H    0.161524
    29  H    0.161476
    30  H    0.162134
    31  H    0.153005
 Sum of Mulliken atomic charges =   0.00000

 Dipole moment (field-independent basis, Debye):
    X=             -1.5803    Y=             -1.9338    Z=             -0.0029  Tot=              2.4974
 Quadrupole moment (field-independent basis, Debye-Ang):
   XX=            -88.6545   YY=            -84.7468   ZZ=            -83.2156
   XY=             -4.8129   XZ=              0.0019   YZ=             -0.0160

 Normal termination of Gaussian 09 at Thu Jul  5 04:55:11 2018.
