 Gaussian 09, Revision C.01,
 Gaussian 09:  AM64L-G09RevC.01 23-Sep-2011

 -------------------
 # b3lyp/6-31+g(d,p)
 -------------------

 99/5=1,9=1/99;
 -------------------
 bicyclooctyl-CMe2Cl
 -------------------
 Charge =  0 Multiplicity = 1

                         Standard orientation:
 ---------------------------------------------------------------------
 Center     Atomic      Atomic             Coordinates (Angstroms)
 Number     Number       Type             X           Y           Z
 ---------------------------------------------------------------------
      1          6           0       -2.385188   -1.202379    0.000000
      2          6           0       -1.696299    0.189118    0.000000
      3          6           0       -1.336455   -2.316585    0.000000
      4          6           0       -0.151553    0.039734    0.000000
      5          6           0       -0.456650   -2.174530    1.242435
      6          6           0        0.228886   -0.783489    1.255040
      7          6           0       -0.456650   -2.174530   -1.242435
      8          6           0        0.228886   -0.783489   -1.255040
      9          6           0        0.528815    1.454561    0.000000
     10          6           0        0.228886    2.295595    1.244912
     11         17           0        2.369831    1.239160    0.000000
     12          6           0        0.228886    2.295595   -1.244912
     13          1           0       -3.027494   -1.302943   -0.870653
     14          1           0       -3.027494   -1.302943    0.870653
     15          1           0       -2.017086    0.750428    0.870023
     16          1           0       -2.017086    0.750428   -0.870023
     17          1           0       -1.827731   -3.286424    0.000000
     18          1           0        0.290209   -2.963550    1.253526
     19          1           0       -1.058358   -2.306522    2.137789
     20          1           0        1.303995   -0.896671    1.305448
     21          1           0       -0.070052   -0.247063    2.147855
     22          1           0       -1.058358   -2.306522   -2.137789
     23          1           0        0.290209   -2.963550   -1.253526
     24          1           0       -0.070052   -0.247063   -2.147855
     25          1           0        1.303995   -0.896671   -1.305448
     26          1           0        0.766921    3.233578    1.185699
     27          1           0       -0.829990    2.522559    1.300004
     28          1           0        0.527461    1.801728    2.158275
     29          1           0        0.766921    3.233578   -1.185699
     30          1           0        0.527461    1.801728   -2.158275
     31          1           0       -0.829990    2.522559   -1.300004
 ---------------------------------------------------------------------

 SCF Done:  E(RB3LYP) =  -890.856646671     A.U. after   14 cycles

 The electronic state is 1-A'.
 Alpha  occ. eigenvalues -- -101.52303 -10.26009 -10.20713 -10.18527 -10.18459
 Alpha  occ. eigenvalues --  -10.18458 -10.18416 -10.18140 -10.17759 -10.17758
 Alpha  occ. eigenvalues --  -10.17644 -10.17644  -9.43857  -7.20202  -7.19311
 Alpha  occ. eigenvalues --   -7.19302  -0.88052  -0.84538  -0.76977  -0.74644
 Alpha  occ. eigenvalues --   -0.74380  -0.73978  -0.70258  -0.61813  -0.61398
 Alpha  occ. eigenvalues --   -0.61334  -0.55521  -0.50541  -0.48331  -0.48279
 Alpha  occ. eigenvalues --   -0.48062  -0.45648  -0.43493  -0.43313  -0.41232
 Alpha  occ. eigenvalues --   -0.40581  -0.39551  -0.38080  -0.37602  -0.37536
 Alpha  occ. eigenvalues --   -0.36556  -0.36432  -0.35627  -0.34939  -0.34716
 Alpha  occ. eigenvalues --   -0.32289  -0.30230  -0.29137  -0.29091  -0.28222
 Alpha  occ. eigenvalues --   -0.28192
 Alpha virt. eigenvalues --   -0.00618   0.00937   0.01288   0.01635   0.02239
 Alpha virt. eigenvalues --    0.03165   0.03456   0.03681   0.03929   0.04564
 Alpha virt. eigenvalues --    0.05445   0.06332   0.06522   0.06813   0.07645

 Mulliken atomic charges:
              1
     1  C   -0.424674
     2  C   -0.345518
     3  C    0.045494
     4  C   -0.112853
     5  C   -0.427744
     6  C   -0.253945
     7  C   -0.427744
     8  C   -0.253945
     9  C    0.348911
    10  C   -0.443437
    11  Cl  -0.029181
    12  C   -0.443437
    13  H    0.137567
    14  H    0.137567
    15  H    0.139127
    16  H    0.139127
    17  H    0.117644
    18  H    0.138172
    19  H    0.135407
    20  H    0.165477
    21  H    0.132389
    22  H    0.135407
    23  H    0.138172
    24  H    0.132389
    25  H    0.165477
    26  H    0.163088
    27  H    0.151614
    28  H    0.162374
    29  H    0.163088
    30  H    0.162374
    31  H    0.151614
 Sum of Mulliken atomic charges =   0.00000

 Dipole moment (field-independent basis, Debye):
    X=             -2.3932    Y=             -0.0814    Z=              0.0000  Tot=              2.3945
 Quadrupole moment (field-independent basis, Debye-Ang):
   XX=            -89.7510   YY=            -82.4777   ZZ=            -83.1472
   XY=             -3.1053   XZ=              0.0000   YZ=              0.0000

 Normal termination of Gaussian 09 at Thu Jul  5 18:00:18 2018.
