 Gaussian 09, Revision A.01,
 Gaussian 09:  EM64L-G09RevA.01  8-May-2009

 -------------------
 # b3lyp/6-31+g(d,p)
 -------------------

 ------------------------
 cyclohene half chair.hin
 ------------------------
 Symbolic Z-matrix:
 Charge =  0 Multiplicity = 1

                         Standard orientation:
 ---------------------------------------------------------------------
 Center     Atomic      Atomic             Coordinates (Angstroms)
 Number     Number       Type             X           Y           Z
 ---------------------------------------------------------------------
      1          6           0       -1.490890    0.043012   -0.118929
      2          6           0       -0.668543    1.302854   -0.051522
      3          6           0        0.668704    1.302780    0.051469
      4          6           0       -0.690497   -1.186436    0.333469
      5          6           0        0.690373   -1.186464   -0.333562
      6          6           0        1.490879    0.042833    0.119064
      7          1           0       -1.841228   -0.084521   -1.170196
      8          1           0       -2.393007    0.153853    0.528340
      9          1           0       -1.207919    2.264433   -0.107072
     10          1           0        1.208207    2.264302    0.106887
     11          1           0       -1.249782   -2.119624    0.081964
     12          1           0       -0.559467   -1.169558    1.442126
     13          1           0        0.559369   -1.169394   -1.442209
     14          1           0        1.249558   -2.119746   -0.082182
     15          1           0        2.393155    0.153538   -0.528004
     16          1           0        1.840952   -0.084765    1.170416
 ---------------------------------------------------------------------

 SCF Done:  E(RB3LYP) =  -234.667702374     A.U. after   11 cycles

 The electronic state is 1-A.
 Alpha  occ. eigenvalues --  -10.19015 -10.19015 -10.18745 -10.18723 -10.18572
 Alpha  occ. eigenvalues --  -10.18489  -0.83224  -0.73949  -0.73813  -0.61495
 Alpha  occ. eigenvalues --   -0.59543  -0.50822  -0.48953  -0.44270  -0.42639
 Alpha  occ. eigenvalues --   -0.40556  -0.38802  -0.38120  -0.37665  -0.33013
 Alpha  occ. eigenvalues --   -0.31408  -0.30436  -0.24193
 Alpha virt. eigenvalues --    0.00144   0.01543   0.02612   0.02770   0.02988
 Alpha virt. eigenvalues --    0.04584   0.04608   0.06830   0.07070   0.07743
 Alpha virt. eigenvalues --    0.09333   0.10115   0.10650   0.11154   0.11644

 Mulliken atomic charges:
              1
     1  C   -0.369766
     2  C   -0.072114
     3  C   -0.072102
     4  C   -0.239122
     5  C   -0.239095
     6  C   -0.369708
     7  H    0.150041
     8  H    0.139181
     9  H    0.118402
    10  H    0.118402
    11  H    0.131394
    12  H    0.141936
    13  H    0.141941
    14  H    0.131392
    15  H    0.139174
    16  H    0.150043
 Sum of Mulliken atomic charges =   0.00000

 Dipole moment (field-independent basis, Debye):
    X=             -0.0001    Y=             -0.3385    Z=              0.0000  Tot=              0.3385
 Quadrupole moment (field-independent basis, Debye-Ang):
   XX=            -37.9171   YY=            -39.0343   ZZ=            -40.0447
   XY=             -0.0001   XZ=              0.2558   YZ=             -0.0001

 Normal termination of Gaussian 09 at Mon Feb 19 01:25:26 2018.
