 Gaussian 09, Revision A.01,
 Gaussian 09:  EM64L-G09RevA.01  8-May-2009

 -------------------
 # b3lyp/6-31+g(d,p)
 -------------------

 --------------------
 cyclohexene boat.hin
 --------------------
 Symbolic Z-matrix:
 Charge =  0 Multiplicity = 1

                         Standard orientation:
 ---------------------------------------------------------------------
 Center     Atomic      Atomic             Coordinates (Angstroms)
 Number     Number       Type             X           Y           Z
 ---------------------------------------------------------------------
      1          6           0       -1.407988    0.087788    0.343234
      2          6           0       -0.669789    1.287883   -0.183248
      3          6           0        0.669790    1.287883   -0.183244
      4          6           0       -0.771245   -1.207175   -0.183945
      5          6           0        0.771241   -1.207178   -0.183936
      6          6           0        1.407991    0.087790    0.343225
      7          1           0       -2.481318    0.133487    0.040739
      8          1           0       -1.374338    0.119409    1.457752
      9          1           0       -1.238546    2.171761   -0.519280
     10          1           0        1.238530    2.171769   -0.519283
     11          1           0       -1.123804   -1.359639   -1.233001
     12          1           0       -1.163310   -2.075989    0.397523
     13          1           0        1.123824   -1.359668   -1.232983
     14          1           0        1.163303   -2.075982    0.397551
     15          1           0        2.481314    0.133493    0.040725
     16          1           0        1.374347    0.119415    1.457751
 ---------------------------------------------------------------------

 SCF Done:  E(RB3LYP) =  -234.658525719     A.U. after   11 cycles

 The electronic state is 1-A.
 Alpha  occ. eigenvalues --  -10.19044 -10.19043 -10.18787 -10.18767 -10.18409
 Alpha  occ. eigenvalues --  -10.18324  -0.83293  -0.73876  -0.73729  -0.61864
 Alpha  occ. eigenvalues --   -0.59040  -0.49502  -0.49215  -0.47110  -0.40635
 Alpha  occ. eigenvalues --   -0.40169  -0.39650  -0.37832  -0.37493  -0.32370
 Alpha  occ. eigenvalues --   -0.31903  -0.29948  -0.24295
 Alpha virt. eigenvalues --    0.00558   0.00634   0.02671   0.02739   0.02961
 Alpha virt. eigenvalues --    0.04606   0.05547   0.05922   0.06646   0.07815
 Alpha virt. eigenvalues --    0.09429   0.10192   0.11012   0.11182   0.11627

 Mulliken atomic charges:
              1
     1  C   -0.327736
     2  C   -0.079047
     3  C   -0.079048
     4  C   -0.281653
     5  C   -0.281662
     6  C   -0.327746
     7  H    0.134915
     8  H    0.154838
     9  H    0.121839
    10  H    0.121839
    11  H    0.142753
    12  H    0.134101
    13  H    0.142752
    14  H    0.134101
    15  H    0.134917
    16  H    0.154838
 Sum of Mulliken atomic charges =   0.00000

 Dipole moment (field-independent basis, Debye):
    X=              0.0000    Y=             -0.2824    Z=              0.1779  Tot=              0.3337
 Quadrupole moment (field-independent basis, Debye-Ang):
   XX=            -37.7780   YY=            -39.4261   ZZ=            -39.8573
   XY=              0.0000   XZ=              0.0000   YZ=             -0.6498

 Normal termination of Gaussian 09 at Mon Feb 19 01:25:58 2018.
