 Gaussian 09, Revision E.01,
 Gaussian 09:  ES64L-G09RevE.01 30-Nov-2015

 -------------------
 # b3lyp/6-31+g(d,p)
 -------------------

 ----------------------
 cyclohexane_sofa_b3lyp
 ----------------------
 Symbolic Z-matrix:
 Charge =  0 Multiplicity = 1

                         Standard orientation:
 ---------------------------------------------------------------------
 Center     Atomic      Atomic             Coordinates (Angstroms)
 Number     Number       Type             X           Y           Z
 ---------------------------------------------------------------------
      1          6           0        0.003854    1.491868    0.104216
      2          6           0        1.331829    0.718646   -0.010713
      3          6           0        1.234920   -0.792225   -0.251774
      4          6           0       -1.327455    0.725748   -0.010770
      5          6           0       -1.239526   -0.784883   -0.251855
      6          6           0       -0.004073   -1.392275    0.416053
      7          1           0        0.006074    2.106402    1.038375
      8          1           0        0.006599    2.253201   -0.712983
      9          1           0        2.005320    1.180338   -0.772447
     10          1           0        1.866073    0.848605    0.962009
     11          1           0        1.188710   -0.985549   -1.350083
     12          1           0        2.158622   -1.302381    0.114514
     13          1           0       -1.860481    0.858566    0.962192
     14          1           0       -1.998712    1.191970   -0.771953
     15          1           0       -2.165680   -1.291208    0.114739
     16          1           0       -1.193903   -0.979031   -1.350045
     17          1           0       -0.002765   -1.180522    1.511160
     18          1           0       -0.007141   -2.501673    0.283576
 ---------------------------------------------------------------------

 SCF Done:  E(RB3LYP) =  -235.880936806     A.U. after   11 cycles

 The electronic state is 1-A.
 Alpha  occ. eigenvalues --  -10.18345 -10.18329 -10.18309 -10.18304 -10.18242
 Alpha  occ. eigenvalues --  -10.18236  -0.82281  -0.73678  -0.73630  -0.60780
 Alpha  occ. eigenvalues --   -0.60268  -0.52742  -0.47183  -0.45999  -0.42884
 Alpha  occ. eigenvalues --   -0.41648  -0.38035  -0.37041  -0.36853  -0.34527
 Alpha  occ. eigenvalues --   -0.33451  -0.30217  -0.29480  -0.28955
 Alpha virt. eigenvalues --    0.00243   0.02364   0.02630   0.02777   0.04463
 Alpha virt. eigenvalues --    0.04514   0.06206   0.06490   0.06664   0.09296
 Alpha virt. eigenvalues --    0.09529   0.10171   0.10443   0.10753   0.10868

 Mulliken charges:
               1
     1  C   -0.285985
     2  C   -0.318542
     3  C   -0.249979
     4  C   -0.318400
     5  C   -0.249976
     6  C   -0.195102
     7  H    0.141606
     8  H    0.136870
     9  H    0.137552
    10  H    0.136000
    11  H    0.131536
    12  H    0.131979
    13  H    0.136042
    14  H    0.137547
    15  H    0.131970
    16  H    0.131564
    17  H    0.134664
    18  H    0.130654
 Sum of Mulliken charges =  -0.00000

 Dipole moment (field-independent basis, Debye):
    X=              0.0002    Y=              0.0082    Z=              0.0215  Tot=              0.0230
 Quadrupole moment (field-independent basis, Debye-Ang):
   XX=            -41.4013   YY=            -41.2516   ZZ=            -40.1838
   XY=              0.0019   XZ=             -0.0002   YZ=             -0.1443

 Normal termination of Gaussian 09 at Fri Jul 27 23:47:01 2018.
