 Gaussian 09, Revision E.01,
 Gaussian 09:  ES64L-G09RevE.01 30-Nov-2015

 -------------------
 # b3lyp/6-31+g(d,p)
 -------------------

 -----------------------
 cyclohexane_chair_b3lyp
 -----------------------
 Symbolic Z-matrix:
 Charge =  0 Multiplicity = 1

                         Standard orientation:
 ---------------------------------------------------------------------
 Center     Atomic      Atomic             Coordinates (Angstroms)
 Number     Number       Type             X           Y           Z
 ---------------------------------------------------------------------
      1          6           0        0.434821    1.394132   -0.237453
      2          6           0        1.424256    0.320246    0.237446
      3          6           0        0.990197   -1.072927   -0.237386
      4          6           0       -0.990054    1.073197    0.237173
      5          6           0       -1.424862   -0.320440   -0.237188
      6          6           0       -0.434678   -1.393862    0.237240
      7          1           0        0.747035    2.395527    0.145307
      8          1           0        0.451899    1.448343   -1.351577
      9          1           0        2.448188    0.551112   -0.144728
     10          1           0        1.480878    0.332854    1.352208
     11          1           0        1.029464   -1.115423   -1.352148
     12          1           0        1.701128   -1.844999    0.145089
     13          1           0       -1.028681    1.115000    1.352269
     14          1           0       -1.701095    1.844112   -0.144497
     15          1           0       -2.448045   -0.550842    0.144515
     16          1           0       -1.480095   -0.333277   -1.352087
     17          1           0       -0.451867   -1.449230    1.352169
     18          1           0       -0.746892   -2.395256   -0.145519
 ---------------------------------------------------------------------

 SCF Done:  E(RB3LYP) =  -235.899809672     A.U. after   10 cycles

 The electronic state is 1-A.
 Alpha  occ. eigenvalues --  -10.18349 -10.18339 -10.18337 -10.18319 -10.18317
 Alpha  occ. eigenvalues --  -10.18305  -0.82660  -0.73566  -0.73550  -0.60018
 Alpha  occ. eigenvalues --   -0.60005  -0.54527  -0.47446  -0.43516  -0.43226
 Alpha  occ. eigenvalues --   -0.43223  -0.37410  -0.37395  -0.36935  -0.33930
 Alpha  occ. eigenvalues --   -0.33919  -0.31662  -0.29520  -0.29499
 Alpha virt. eigenvalues --    0.00586   0.02265   0.02345   0.02347   0.04494
 Alpha virt. eigenvalues --    0.04494   0.06667   0.06669   0.06901   0.09185
 Alpha virt. eigenvalues --    0.09514   0.09518   0.09580   0.10270   0.11015

 Mulliken charges:
               1
     1  C   -0.264262
     2  C   -0.263805
     3  C   -0.263951
     4  C   -0.264322
     5  C   -0.263808
     6  C   -0.264439
     7  H    0.129943
     8  H    0.134300
     9  H    0.129802
    10  H    0.134204
    11  H    0.134200
    12  H    0.129869
    13  H    0.134136
    14  H    0.129942
    15  H    0.129959
    16  H    0.134135
    17  H    0.134194
    18  H    0.129904
 Sum of Mulliken charges =  -0.00000

 Dipole moment (field-independent basis, Debye):
    X=             -0.0011    Y=              0.0005    Z=             -0.0010  Tot=              0.0015
 Quadrupole moment (field-independent basis, Debye-Ang):
   XX=            -41.3419   YY=            -41.3404   ZZ=            -40.3865
   XY=              0.0012   XZ=             -0.0002   YZ=             -0.0001

 Normal termination of Gaussian 09 at Fri Jul 27 23:47:03 2018.
