 Gaussian 09, Revision E.01,
 Gaussian 09:  ES64L-G09RevE.01 30-Nov-2015

 ------------------------------------
 # opt=modredundant b3lyp/6-31+g(d,p)
 ------------------------------------

 ---------------
 diMe-sulfone-ts
 ---------------
 Symbolic Z-matrix:
 Charge =  0 Multiplicity = 1

 SCF Done:  E(RB3LYP) =  -628.414167407     A.U. after   12 cycles
 SCF Done:  E(RB3LYP) =  -628.418775637     A.U. after   11 cycles
 SCF Done:  E(RB3LYP) =  -628.419236719     A.U. after   10 cycles
 SCF Done:  E(RB3LYP) =  -628.419276535     A.U. after    9 cycles
 SCF Done:  E(RB3LYP) =  -628.419278886     A.U. after    8 cycles
 Optimization completed.
    -- Stationary point found.

                         Standard orientation:
 ---------------------------------------------------------------------
 Center     Atomic      Atomic             Coordinates (Angstroms)
 Number     Number       Type             X           Y           Z
 ---------------------------------------------------------------------
      1          6           0       -1.386492    0.981775   -0.004898
      2         16           0       -0.007778   -0.191532   -0.000124
      3          6           0        1.482630    0.865418    0.008033
      4          8           0       -0.055907   -0.923170    1.279012
      5          8           0       -0.039715   -0.920807   -1.281041
      6          1           0       -1.343917    1.586761   -0.912213
      7          1           0       -1.340044    1.597168    0.895319
      8          1           0        2.095030    0.560148   -0.841189
      9          1           0        1.194030    1.913493   -0.097731
     10          1           0        1.999593    0.703525    0.954190
     11          1           0       -2.292087    0.372073    0.001023
 ---------------------------------------------------------------------

 The electronic state is 1-A.
 Alpha  occ. eigenvalues --  -89.10833 -19.15206 -19.15179 -10.23973 -10.23881
 Alpha  occ. eigenvalues --   -8.13714  -6.10133  -6.10074  -6.10047  -1.10762
 Alpha  occ. eigenvalues --   -1.00471  -0.80548  -0.75701  -0.61427  -0.51241
 Alpha  occ. eigenvalues --   -0.49683  -0.48748  -0.45900  -0.45507  -0.43162
 Alpha  occ. eigenvalues --   -0.42907  -0.33622  -0.32219  -0.30713  -0.30091
 Alpha virt. eigenvalues --   -0.01444   0.01307   0.01578   0.03569   0.04115
 Alpha virt. eigenvalues --    0.04908   0.05283   0.05723   0.06483   0.07734
 Alpha virt. eigenvalues --    0.08607   0.10190   0.10434   0.10772   0.11871

 Mulliken charges:
               1
     1  C   -0.560194
     2  S    1.116642
     3  C   -0.615419
     4  O   -0.584774
     5  O   -0.581935
     6  H    0.194094
     7  H    0.194832
     8  H    0.218316
     9  H    0.187489
    10  H    0.216759
    11  H    0.214190
 Sum of Mulliken charges =  -0.00000

 Dipole moment (field-independent basis, Debye):
    X=              0.2719    Y=              4.9883    Z=             -0.0004  Tot=              4.9957
 Quadrupole moment (field-independent basis, Debye-Ang):
   XX=            -32.0900   YY=            -39.2069   ZZ=            -44.3356
   XY=             -0.2576   XZ=              0.0496   YZ=              0.0091

 Normal termination of Gaussian 09 at Tue Jul 10 16:37:35 2018.
