 Gaussian 09, Revision E.01,
 Gaussian 09:  ES64L-G09RevE.01 30-Nov-2015

 -----------------------
 # opt b3lyp/6-31+g(d,p)
 -----------------------

 -------------------
 dimethylphosphine_a
 -------------------
 Symbolic Z-matrix:
 Charge =  0 Multiplicity = 1

 SCF Done:  E(RB3LYP) =  -421.791302775     A.U. after   10 cycles
 SCF Done:  E(RB3LYP) =  -421.792036907     A.U. after    9 cycles
 SCF Done:  E(RB3LYP) =  -421.792048024     A.U. after    7 cycles
 SCF Done:  E(RB3LYP) =  -421.792049396     A.U. after    7 cycles
 SCF Done:  E(RB3LYP) =  -421.792049518     A.U. after    6 cycles
 Optimization completed.
    -- Stationary point found.

                         Standard orientation:
 ---------------------------------------------------------------------
 Center     Atomic      Atomic             Coordinates (Angstroms)
 Number     Number       Type             X           Y           Z
 ---------------------------------------------------------------------
      1         15           0        0.000000   -0.660010   -0.112714
      2          6           0        1.436305    0.531845    0.021724
      3          6           0       -1.436305    0.531845    0.021724
      4          1           0        0.000000   -1.083752    1.248889
      5          1           0        2.363095   -0.032927    0.162557
      6          1           0        1.528269    1.088072   -0.916570
      7          1           0        1.328160    1.245741    0.844576
      8          1           0       -2.363095   -0.032927    0.162557
      9          1           0       -1.328160    1.245741    0.844577
     10          1           0       -1.528269    1.088072   -0.916570
 ---------------------------------------------------------------------

 The electronic state is 1-A.
 Alpha  occ. eigenvalues --  -77.08064 -10.18945 -10.18945  -6.54953  -4.71199
 Alpha  occ. eigenvalues --   -4.71192  -4.70694  -0.74583  -0.69323  -0.56199
 Alpha  occ. eigenvalues --   -0.43528  -0.42733  -0.40670  -0.40266  -0.34421
 Alpha  occ. eigenvalues --   -0.33662  -0.23908
 Alpha virt. eigenvalues --   -0.00689   0.00435   0.02552   0.03998   0.04977
 Alpha virt. eigenvalues --    0.06374   0.06541   0.07432   0.07799   0.08203
 Alpha virt. eigenvalues --    0.10221   0.11427   0.12859   0.13768   0.17448

 Mulliken charges:
               1
     1  P    0.302728
     2  C   -0.638954
     3  C   -0.638954
     4  H   -0.037767
     5  H    0.170836
     6  H    0.169198
     7  H    0.166439
     8  H    0.170836
     9  H    0.166439
    10  H    0.169198
 Sum of Mulliken charges =  -0.00000

 Dipole moment (field-independent basis, Debye):
    X=             -0.0000    Y=              1.1894    Z=              0.6334  Tot=              1.3475
 Quadrupole moment (field-independent basis, Debye-Ang):
   XX=            -27.3583   YY=            -30.5463   ZZ=            -29.1489
   XY=              0.0000   XZ=              0.0000   YZ=             -1.7191

 Normal termination of Gaussian 09 at Wed Jul 11 09:40:37 2018.
