 Gaussian 09, Revision E.01,
 Gaussian 09:  ES64L-G09RevE.01 30-Nov-2015

 ------------------------------------
 # opt=modredundant b3lyp/6-31+g(d,p)
 ------------------------------------

 ---------------------
 dimethylphosphine-ecl
 ---------------------
 Symbolic Z-matrix:
 Charge =  0 Multiplicity = 1

 SCF Done:  E(RB3LYP) =  -421.752818442     A.U. after   12 cycles
 SCF Done:  E(RB3LYP) =  -421.778534616     A.U. after   11 cycles
 SCF Done:  E(RB3LYP) =  -421.788646725     A.U. after   10 cycles
 SCF Done:  E(RB3LYP) =  -421.790149869     A.U. after    9 cycles
 SCF Done:  E(RB3LYP) =  -421.790375922     A.U. after    9 cycles
 SCF Done:  E(RB3LYP) =  -421.790390928     A.U. after    8 cycles
 SCF Done:  E(RB3LYP) =  -421.790394049     A.U. after    8 cycles
 Optimization completed.
    -- Stationary point found.

                         Standard orientation:
 ---------------------------------------------------------------------
 Center     Atomic      Atomic             Coordinates (Angstroms)
 Number     Number       Type             X           Y           Z
 ---------------------------------------------------------------------
      1         15           0        0.003003   -0.664414   -0.112909
      2          6           0        1.432695    0.539080    0.020847
      3          6           0       -1.441736    0.529141    0.022790
      4          1           0        0.035324   -1.074720    1.251856
      5          1           0        2.359653   -0.020019    0.182394
      6          1           0        1.534058    1.082242   -0.923918
      7          1           0        1.312551    1.263631    0.832614
      8          1           0       -2.348180    0.044423   -0.352369
      9          1           0       -1.634455    0.857772    1.047776
     10          1           0       -1.249752    1.403562   -0.606546
 ---------------------------------------------------------------------

 The electronic state is 1-A.
 Alpha  occ. eigenvalues --  -77.08069 -10.18915 -10.18897  -6.54951  -4.71195
 Alpha  occ. eigenvalues --   -4.71191  -4.70692  -0.74495  -0.69255  -0.56224
 Alpha  occ. eigenvalues --   -0.43663  -0.42466  -0.40496  -0.40340  -0.34351
 Alpha  occ. eigenvalues --   -0.33616  -0.23893
 Alpha virt. eigenvalues --   -0.00792   0.00405   0.02538   0.03855   0.04802
 Alpha virt. eigenvalues --    0.06261   0.06535   0.07516   0.07726   0.08202
 Alpha virt. eigenvalues --    0.10071   0.11802   0.12852   0.14013   0.17057

 Mulliken charges:
               1
     1  P    0.318739
     2  C   -0.649843
     3  C   -0.656468
     4  H   -0.036299
     5  H    0.170572
     6  H    0.168805
     7  H    0.168794
     8  H    0.173317
     9  H    0.175189
    10  H    0.167193
 Sum of Mulliken charges =  -0.00000

 Dipole moment (field-independent basis, Debye):
    X=             -0.0302    Y=              1.2008    Z=              0.6554  Tot=              1.3684
 Quadrupole moment (field-independent basis, Debye-Ang):
   XX=            -27.4242   YY=            -30.5401   ZZ=            -29.0933
   XY=             -0.0174   XZ=              0.0006   YZ=             -1.6985

 Normal termination of Gaussian 09 at Fri Jul 13 01:03:03 2018.
