 Gaussian 09, Revision A.01,
 Gaussian 09:  EM64L-G09RevA.01  8-May-2009

 -------------------
 # b3lyp/6-31+g(d,p)
 -------------------

 -----------------------
 dimethilsulfide-ecl.hin
 -----------------------
 Symbolic Z-matrix:
 Charge =  0 Multiplicity = 1

                         Standard orientation:
 ---------------------------------------------------------------------
 Center     Atomic      Atomic             Coordinates (Angstroms)
 Number     Number       Type             X           Y           Z
 ---------------------------------------------------------------------
      1          6           0       -1.504201    0.421974    0.000000
      2         16           0        0.000398   -0.551707    0.000000
      3          6           0        1.504070    0.422654    0.000000
      4          1           0       -2.104540    0.185701    0.906800
      5          1           0       -1.256759    1.507096    0.000003
      6          1           0       -2.104541    0.185704   -0.906799
      7          1           0        1.535644    1.066623    0.907203
      8          1           0        2.388963   -0.252219   -0.000004
      9          1           0        1.535651    1.066636   -0.907195
 ---------------------------------------------------------------------

 SCF Done:  E(RB3LYP) =  -478.013186580     A.U. after   10 cycles

 The electronic state is 1-A.
 Alpha  occ. eigenvalues --  -88.86664 -10.22060 -10.22031  -7.92852  -5.89414
 Alpha  occ. eigenvalues --   -5.88951  -5.88285  -0.80016  -0.71410  -0.59375
 Alpha  occ. eigenvalues --   -0.44368  -0.43654  -0.42804  -0.41491  -0.38931
 Alpha  occ. eigenvalues --   -0.29141  -0.21541
 Alpha virt. eigenvalues --    0.00020   0.01244   0.03288   0.04849   0.04855
 Alpha virt. eigenvalues --    0.07063   0.07287   0.07584   0.08793   0.09413
 Alpha virt. eigenvalues --    0.10411   0.11510   0.13150   0.15331   0.15995

 Mulliken atomic charges:
              1
     1  C   -0.554225
     2  S    0.023087
     3  C   -0.537390
     4  H    0.184561
     5  H    0.169141
     6  H    0.184562
     7  H    0.171898
     8  H    0.186468
     9  H    0.171898
 Sum of Mulliken atomic charges =   0.00000

 Dipole moment (field-independent basis, Debye):
    X=              0.0108    Y=              1.8845    Z=              0.0000  Tot=              1.8845
 Quadrupole moment (field-independent basis, Debye-Ang):
   XX=            -23.7065   YY=            -29.2129   ZZ=            -29.0050
   XY=             -0.1962   XZ=              0.0000   YZ=              0.0000

 1\1\GINC-ROCK\SP\RB3LYP\6-31+G(d,p)\C2H6S1\STYLIANAKIS\19-Feb-2018\0\\
 # b3lyp/6-31+g(d,p)\\dimethilsulfide-ecl.hin\\0,1\C,0,-0.61052,-1.2229
 9,0.23006\S,0,-0.88967,0.39191,-0.49523\C,0,-2.42152,1.16936,0.0141\H,
 0,0.33186,-1.21115,0.82192\H,0,-1.45755,-1.49226,0.89995\H,0,-0.52625,
 -1.98683,-0.5749\H,0,-2.42557,1.30589,1.11866\H,0,-2.51993,2.16303,-0.
 47725\H,0,-3.28407,0.52987,-0.27877\X,0,0.03204,1.11658,-0.19649\X,0,-
 0.89167,0.28161,-1.70013\\Version=EM64L-G09RevA.01\State=1-A\HF=-478.0
 131866\RMSD=6.442e-09\Dipole=-0.4795329,-0.3150837,0.4695641\Quadrupol

 Normal termination of Gaussian 09 at Mon Feb 19 01:31:32 2018.
