 Gaussian 09, Revision E.01,
 Gaussian 09:  ES64L-G09RevE.01 30-Nov-2015

 -------------------
 # b3lyp/6-31+g(d,p)
 -------------------

 ------------
 diMe-sulfone
 ------------
 Symbolic Z-matrix:
 Charge =  0 Multiplicity = 1

                         Standard orientation:
 ---------------------------------------------------------------------
 Center     Atomic      Atomic             Coordinates (Angstroms)
 Number     Number       Type             X           Y           Z
 ---------------------------------------------------------------------
      1          6           0        1.402648   -0.901646   -0.000000
      2         16           0       -0.000010    0.183074    0.000000
      3          6           0       -1.402614   -0.901717    0.000000
      4          8           0       -0.000010    0.903986    1.244820
      5          8           0       -0.000010    0.903986   -1.244820
      6          1           0        1.389254   -1.510394   -0.893764
      7          1           0        1.389254   -1.510394    0.893764
      8          1           0       -2.278047   -0.265588    0.000000
      9          1           0       -1.389197   -1.510461   -0.893768
     10          1           0       -1.389197   -1.510461    0.893768
     11          1           0        2.278058   -0.265476   -0.000000
 ---------------------------------------------------------------------

 SCF Done:  E(RB3LYP) =  -628.418698398     A.U. after   11 cycles

 The electronic state is 1-A'.
 Alpha  occ. eigenvalues --  -89.10435 -19.14697 -19.14697 -10.23206 -10.23205
 Alpha  occ. eigenvalues --   -8.13443  -6.09873  -6.09794  -6.09764  -1.12768
 Alpha  occ. eigenvalues --   -1.01810  -0.81341  -0.76389  -0.60929  -0.52068
 Alpha  occ. eigenvalues --   -0.50163  -0.49355  -0.45894  -0.45370  -0.43327
 Alpha  occ. eigenvalues --   -0.43150  -0.34296  -0.32828  -0.30931  -0.30363
 Alpha virt. eigenvalues --   -0.01194   0.01602   0.02503   0.03297   0.04307
 Alpha virt. eigenvalues --    0.05212   0.06543   0.06579   0.06734   0.07399
 Alpha virt. eigenvalues --    0.10175   0.11496   0.12293   0.13773   0.13956

 Mulliken charges:
               1
     1  C   -0.527210
     2  S    0.986429
     3  C   -0.527208
     4  O   -0.562969
     5  O   -0.562969
     6  H    0.191653
     7  H    0.191653
     8  H    0.213655
     9  H    0.191655
    10  H    0.191655
    11  H    0.213655
 Sum of Mulliken charges =  -0.00000

 Dipole moment (field-independent basis, Debye):
    X=              0.0000    Y=             -4.8057    Z=             -0.0000  Tot=              4.8057
 Quadrupole moment (field-independent basis, Debye-Ang):
   XX=            -31.9611   YY=            -39.0289   ZZ=            -43.9408
   XY=              0.0002   XZ=              0.0000   YZ=              0.0000

 Normal termination of Gaussian 09 at Tue Jul 10 16:37:07 2018.
