 Gaussian 09, Revision A.01,
 Gaussian 09:  EM64L-G09RevA.01  8-May-2009

 -------------------
 # b3lyp/6-31+g(d,p)
 -------------------

 ---------------------
 dimethilsulfide-g.hin
 ---------------------
 Symbolic Z-matrix:
 Charge =  0 Multiplicity = 1

                         Standard orientation:
 ---------------------------------------------------------------------
 Center     Atomic      Atomic             Coordinates (Angstroms)
 Number     Number       Type             X           Y           Z
 ---------------------------------------------------------------------
      1          6           0       -1.501891   -0.423638    0.000000
      2         16           0       -0.000001    0.553536    0.000003
      3          6           0        1.501894   -0.423635    0.000003
      4          1           0       -2.388281    0.249272    0.000042
      5          1           0       -1.531636   -1.067814   -0.907094
      6          1           0       -1.531609   -1.067929    0.907018
      7          1           0        1.531433   -1.068163   -0.906861
      8          1           0        2.388280    0.249275   -0.000422
      9          1           0        1.531816   -1.067583    0.907255
 ---------------------------------------------------------------------

 SCF Done:  E(RB3LYP) =  -478.015036129     A.U. after    9 cycles

 The electronic state is 1-A.
 Alpha  occ. eigenvalues --  -88.86783 -10.22118 -10.22117  -7.92954  -5.89513
 Alpha  occ. eigenvalues --   -5.89059  -5.88388  -0.80088  -0.71473  -0.59402
 Alpha  occ. eigenvalues --   -0.44304  -0.43881  -0.42864  -0.41365  -0.39155
 Alpha  occ. eigenvalues --   -0.29170  -0.21652
 Alpha virt. eigenvalues --    0.00099   0.01274   0.03397   0.04730   0.05051
 Alpha virt. eigenvalues --    0.06870   0.07604   0.07744   0.08492   0.09868
 Alpha virt. eigenvalues --    0.10072   0.11757   0.13584   0.14833   0.15215

 Mulliken atomic charges:
              1
     1  C   -0.532932
     2  S    0.010681
     3  C   -0.532931
     4  H    0.187559
     5  H    0.170018
     6  H    0.170015
     7  H    0.170009
     8  H    0.187559
     9  H    0.170023
 Sum of Mulliken atomic charges =   0.00000

 Dipole moment (field-independent basis, Debye):
    X=              0.0000    Y=             -1.8214    Z=              0.0000  Tot=              1.8214
 Quadrupole moment (field-independent basis, Debye-Ang):
   XX=            -23.3846   YY=            -29.3944   ZZ=            -29.1639
   XY=              0.0000   XZ=             -0.0002   YZ=             -0.0001

 1\1\GINC-ROCK\SP\RB3LYP\6-31+G(d,p)\C2H6S1\STYLIANAKIS\19-Feb-2018\0\\
 # b3lyp/6-31+g(d,p)\\dimethilsulfide-g.hin\\0,1\C,0,-0.61222,-1.22192,
 0.22922\S,0,-0.88788,0.39243,-0.49771\C,0,-2.41977,1.16757,0.01515\H,0
 ,0.35369,-1.6381,-0.13452\H,0,-0.57839,-1.13437,1.33821\H,0,-1.43844,-
 1.91002,-0.0581\H,0,-2.42195,1.30203,1.11996\H,0,-2.52042,2.16182,-0.4
 7457\H,0,-3.28177,0.52696,-0.27682\X,0,0.0339,1.11655,-0.19794\X,0,-0.
 89265,0.2809,-1.70246\\Version=EM64L-G09RevA.01\State=1-A\HF=-478.0150
 361\RMSD=9.292e-09\Dipole=-0.4606028,-0.3077017,0.4545989\Quadrupole=0

 Normal termination of Gaussian 09 at Mon Feb 19 01:31:38 2018.
