 Gaussian 09, Revision A.01,
 Gaussian 09:  EM64L-G09RevA.01  8-May-2009

 -------------------
 # b3lyp/6-31+g(d,p)
 -------------------

 -----------------
 ethanethiol-g.hin
 -----------------
 Symbolic Z-matrix:
 Charge =  0 Multiplicity = 1

                         Standard orientation:
 ---------------------------------------------------------------------
 Center     Atomic      Atomic             Coordinates (Angstroms)
 Number     Number       Type             X           Y           Z
 ---------------------------------------------------------------------
      1          6           0       -0.569885    0.700279    0.079715
      2         16           0        1.157267   -0.077677   -0.076983
      3          1           0        1.617023   -0.987016    0.800704
      4          1           0       -0.660447    1.222489    1.060339
      5          1           0       -0.718053    1.450221   -0.731556
      6          6           0       -1.610515   -0.419670   -0.032307
      7          1           0       -2.642002   -0.005746    0.052778
      8          1           0       -1.542816   -0.945444   -1.013005
      9          1           0       -1.487573   -1.175324    0.778021
 ---------------------------------------------------------------------

 SCF Done:  E(RB3LYP) =  -478.003852035     A.U. after   11 cycles

 The electronic state is 1-A.
 Alpha  occ. eigenvalues --  -88.87368 -10.24549 -10.19982  -7.93555  -5.90095
 Alpha  occ. eigenvalues --   -5.89625  -5.89034  -0.79662  -0.70279  -0.61680
 Alpha  occ. eigenvalues --   -0.46826  -0.45309  -0.40835  -0.38152  -0.36877
 Alpha  occ. eigenvalues --   -0.29201  -0.23879
 Alpha virt. eigenvalues --   -0.02220   0.00260   0.02691   0.03814   0.04781
 Alpha virt. eigenvalues --    0.06813   0.07610   0.07822   0.08073   0.08572
 Alpha virt. eigenvalues --    0.11008   0.11503   0.12420   0.14419   0.17707

 Mulliken atomic charges:
              1
     1  C   -0.275894
     2  S   -0.134344
     3  H    0.079105
     4  H    0.180159
     5  H    0.188657
     6  C   -0.504596
     7  H    0.145097
     8  H    0.168324
     9  H    0.153493
 Sum of Mulliken atomic charges =   0.00000

 Dipole moment (field-independent basis, Debye):
    X=             -1.7889    Y=             -0.0562    Z=              1.0387  Tot=              2.0694
 Quadrupole moment (field-independent basis, Debye-Ang):
   XX=            -29.3310   YY=            -27.2866   ZZ=            -27.9226
   XY=             -2.7468   XZ=              1.8048   YZ=             -1.6904

 1\1\GINC-ROCK\SP\RB3LYP\6-31+G(d,p)\C2H6S1\STYLIANAKIS\19-Feb-2018\0\\
 # b3lyp/6-31+g(d,p)\\ethanethiol-g.hin\\0,1\C,0,-0.38646,-1.34545,-0.1
 544\S,0,-0.31211,0.54167,-0.36905\X,0,0.84295,0.87412,-0.23018\X,0,-0.
 55584,0.77896,-1.53017\H,0,-1.0605,1.37819,0.37173\H,0,-1.4262,-1.7045
 8,-0.33466\H,0,0.28651,-1.83381,-0.89679\C,0,0.05988,-1.68211,1.2729\H
 ,0,0.03301,-2.78356,1.44208\H,0,1.10326,-1.34097,1.46725\H,0,-0.60791,
 -1.21269,2.03215\\Version=EM64L-G09RevA.01\State=1-A\HF=-478.003852\RM
 SD=6.340e-09\Dipole=-0.3045758,-0.6057036,0.4508115\Quadrupole=-0.0183

 Normal termination of Gaussian 09 at Mon Feb 19 01:31:54 2018.
