 Gaussian 09, Revision A.01,
 Gaussian 09:  EM64L-G09RevA.01  8-May-2009

 -------------------
 # b3lyp/6-31+g(d,p)
 -------------------

 -------------------
 ethanethiol-ecl.hin
 -------------------
 Symbolic Z-matrix:
 Charge =  0 Multiplicity = 1

                         Standard orientation:
 ---------------------------------------------------------------------
 Center     Atomic      Atomic             Coordinates (Angstroms)
 Number     Number       Type             X           Y           Z
 ---------------------------------------------------------------------
      1          6           0       -0.564741    0.691233    0.079109
      2         16           0        1.167601   -0.080390   -0.077287
      3          1           0        1.632488   -0.987425    0.800101
      4          1           0       -0.640747    1.222053    1.056357
      5          1           0       -0.696627    1.449809   -0.726942
      6          6           0       -1.632636   -0.408651   -0.031505
      7          1           0       -1.210489   -1.428847   -0.179128
      8          1           0       -2.261637   -0.449296    0.887859
      9          1           0       -2.320332   -0.215553   -0.887273
 ---------------------------------------------------------------------

 SCF Done:  E(RB3LYP) =  -477.998138289     A.U. after   11 cycles

 The electronic state is 1-A.
 Alpha  occ. eigenvalues --  -88.87378 -10.24512 -10.19854  -7.93553  -5.90094
 Alpha  occ. eigenvalues --   -5.89628  -5.89028  -0.79497  -0.70317  -0.61760
 Alpha  occ. eigenvalues --   -0.46713  -0.45186  -0.40971  -0.38158  -0.36583
 Alpha  occ. eigenvalues --   -0.29090  -0.23789
 Alpha virt. eigenvalues --   -0.02412   0.00315   0.02646   0.03877   0.04680
 Alpha virt. eigenvalues --    0.06866   0.07295   0.07813   0.08116   0.08186
 Alpha virt. eigenvalues --    0.09934   0.11677   0.12348   0.14680   0.16700

 Mulliken atomic charges:
              1
     1  C   -0.264515
     2  S   -0.155459
     3  H    0.081108
     4  H    0.183600
     5  H    0.191330
     6  C   -0.510285
     7  H    0.172290
     8  H    0.151015
     9  H    0.150913
 Sum of Mulliken atomic charges =   0.00000

 Dipole moment (field-independent basis, Debye):
    X=             -1.8257    Y=             -0.0820    Z=              1.0497  Tot=              2.1076
 Quadrupole moment (field-independent basis, Debye-Ang):
   XX=            -29.3899   YY=            -27.1501   ZZ=            -28.0211
   XY=             -2.7425   XZ=              1.8308   YZ=             -1.6704

 1\1\GINC-ROCK\SP\RB3LYP\6-31+G(d,p)\C2H6S1\STYLIANAKIS\19-Feb-2018\0\\
 # b3lyp/6-31+g(d,p)\\ethanethiol-ecl.hin\\0,1\C,0,-0.43603,-1.27895,-0
 .31377\S,0,-0.36731,0.60677,-0.55914\X,0,0.78717,0.94436,-0.42814\X,0,
 -0.61339,0.82432,-1.72363\H,0,-1.11628,1.45421,0.16855\H,0,-1.47575,-1
 .63372,-0.50266\H,0,0.22737,-1.76569,-1.06579\C,0,0.01236,-1.63137,1.1
 1351\H,0,0.28847,-0.74401,1.72764\H,0,-0.79423,-2.16765,1.66518\H,0,0.
 9002,-2.30525,1.10025\\Version=EM64L-G09RevA.01\State=1-A\HF=-477.9981
 383\RMSD=5.889e-09\Dipole=-0.303116,-0.6080076,0.4753887\Quadrupole=-0

 Normal termination of Gaussian 09 at Mon Feb 19 01:31:46 2018.
