 Gaussian 09, Revision A.01,
 Gaussian 09:  EM64L-G09RevA.01  8-May-2009

 -------------------
 # b3lyp/6-31+g(d,p)
 -------------------

 ------------
 Me-NH2-g.hin
 ------------
 Symbolic Z-matrix:
 Charge =  0 Multiplicity = 1

                         Standard orientation:
 ---------------------------------------------------------------------
 Center     Atomic      Atomic             Coordinates (Angstroms)
 Number     Number       Type             X           Y           Z
 ---------------------------------------------------------------------
      1          6           0        0.699915    0.000000    0.015985
      2          7           0       -0.732110    0.000000   -0.131385
      3          1           0        0.958261   -0.000001    1.099005
      4          1           0        1.127383   -0.909660   -0.464144
      5          1           0        1.127383    0.909660   -0.464152
      6          1           0       -1.143873   -0.812250    0.326533
      7          1           0       -1.143874    0.812250    0.326545
 ---------------------------------------------------------------------

 SCF Done:  E(RB3LYP) =  -95.8692657678     A.U. after   10 cycles

 The electronic state is 1-A.
 Alpha  occ. eigenvalues --  -14.32108 -10.21031  -0.88507  -0.65677  -0.49406
 Alpha  occ. eigenvalues --   -0.44248  -0.41108  -0.36931  -0.23689
 Alpha virt. eigenvalues --    0.00081   0.03160   0.04747   0.05746   0.10503
 Alpha virt. eigenvalues --    0.12649   0.14251   0.18508   0.19169   0.20367
 Alpha virt. eigenvalues --    0.22078   0.23557   0.28784   0.33083   0.63931

 Mulliken atomic charges:
              1
     1  C   -0.357159
     2  N   -0.595779
     3  H    0.115786
     4  H    0.140909
     5  H    0.140908
     6  H    0.277668
     7  H    0.277667
 Sum of Mulliken atomic charges =   0.00000

 Dipole moment (field-independent basis, Debye):
    X=              0.2468    Y=              0.0000    Z=              1.5124  Tot=              1.5324
 Quadrupole moment (field-independent basis, Debye-Ang):
   XX=            -14.4087   YY=            -12.7179   ZZ=            -15.9925
   XY=              0.0000   XZ=             -2.4602   YZ=              0.0000

 1\1\GINC-ROCK\SP\RB3LYP\6-31+G(d,p)\C1H5N1\STYLIANAKIS\19-Feb-2018\0\\
 # b3lyp/6-31+g(d,p)\\Me-NH2-g.hin\\0,1\C,0,-1.3951,-0.3769,0.00498\N,0
 ,-1.4184,1.0625,0.00498\X,0,-1.98222,1.2704,0.00498\H,0,-0.3384,-0.727
 7,0.00498\H,0,-1.91031,-0.76136,0.91464\H,0,-1.91032,-0.76136,-0.90468
 \H,0,-0.92667,1.43323,0.81723\H,0,-0.92666,1.43323,-0.80727\\Version=E
 M64L-G09RevA.01\State=1-A\HF=-95.8692658\RMSD=3.199e-09\Dipole=0.58442
 08,-0.14805,0.0000044\Quadrupole=-0.880913,-0.3496595,1.2305725,1.9030
 624,-0.0000056,0.0000019\PG=C01 [X(C1H5N1)]\\@

 Normal termination of Gaussian 09 at Mon Feb 19 01:32:02 2018.
