 Gaussian 09, Revision A.01,
 Gaussian 09:  EM64L-G09RevA.01  8-May-2009

 -------------------
 # b3lyp/6-31+g(d,p)
 -------------------

 --------------
 Me-NH2-ecl.hin
 --------------
 Symbolic Z-matrix:
 Charge =  0 Multiplicity = 1

                         Standard orientation:
 ---------------------------------------------------------------------
 Center     Atomic      Atomic             Coordinates (Angstroms)
 Number     Number       Type             X           Y           Z
 ---------------------------------------------------------------------
      1          6           0        0.700245    0.000228   -0.016435
      2          7           0       -0.733026   -0.000212    0.131913
      3          1           0        1.014947   -0.891680   -0.604263
      4          1           0        1.020777    0.923298   -0.550558
      5          1           0        1.188856   -0.032366    0.984429
      6          1           0       -1.147466    0.810861   -0.326032
      7          1           0       -1.147404   -0.809997   -0.328355
 ---------------------------------------------------------------------

 SCF Done:  E(RB3LYP) =  -95.8662248785     A.U. after   10 cycles

 The electronic state is 1-A.
 Alpha  occ. eigenvalues --  -14.32076 -10.20984  -0.88451  -0.65646  -0.49531
 Alpha  occ. eigenvalues --   -0.44358  -0.40765  -0.36753  -0.23757
 Alpha virt. eigenvalues --    0.00040   0.03153   0.04823   0.05731   0.10514
 Alpha virt. eigenvalues --    0.12575   0.14307   0.15151   0.17865   0.20953
 Alpha virt. eigenvalues --    0.24566   0.27680   0.29006   0.33456   0.64655

 Mulliken atomic charges:
              1
     1  C   -0.362420
     2  N   -0.592007
     3  H    0.124645
     4  H    0.125645
     5  H    0.145987
     6  H    0.278978
     7  H    0.279171
 Sum of Mulliken atomic charges =   0.00000

 Dipole moment (field-independent basis, Debye):
    X=              0.2029    Y=              0.0058    Z=             -1.6239  Tot=              1.6366
 Quadrupole moment (field-independent basis, Debye-Ang):
   XX=            -14.4984   YY=            -12.7999   ZZ=            -15.8482
   XY=              0.0098   XZ=              2.1938   YZ=             -0.0031

 1\1\GINC-ROCK\SP\RB3LYP\6-31+G(d,p)\C1H5N1\STYLIANAKIS\19-Feb-2018\0\\
 # b3lyp/6-31+g(d,p)\\Me-NH2-ecl.hin\\0,1\C,0,-1.40516,-0.37753,-0.0097
 4\N,0,-1.45697,1.05965,-0.09975\X,0,-2.00916,1.24997,-0.24033\H,0,-0.6
 5091,-0.76964,-0.72907\H,0,-1.11739,-0.67753,1.02335\H,0,-2.40152,-0.8
 1268,-0.25355\H,0,-1.17038,1.49078,0.77849\H,0,-0.79847,1.40572,-0.796
 83\\Version=EM64L-G09RevA.01\State=1-A\HF=-95.8662249\RMSD=2.621e-09\D
 ipole=0.6150445,-0.113825,0.152761\Quadrupole=-0.7648575,-0.2614381,1.
 0262956,1.6135861,-0.5404287,0.4483758\PG=C01 [X(C1H5N1)]\\@

 Normal termination of Gaussian 09 at Mon Feb 19 01:31:58 2018.
