 Gaussian 09, Revision A.01,
 Gaussian 09:  EM64L-G09RevA.01  8-May-2009

 -------------------
 # b3lyp/6-31+g(d,p)
 -------------------

 --------------------------
 methylformate-H-Lp-ecl.hin
 --------------------------
 Symbolic Z-matrix:
 Charge =  0 Multiplicity = 1

                         Standard orientation:
 ---------------------------------------------------------------------
 Center     Atomic      Atomic             Coordinates (Angstroms)
 Number     Number       Type             X           Y           Z
 ---------------------------------------------------------------------
      1          6           0       -0.839639    0.433105    0.000008
      2          8           0       -1.361365   -0.657362    0.000020
      3          8           0        0.493846    0.700779    0.000100
      4          6           0        1.400866   -0.388184   -0.000056
      5          1           0       -1.412561    1.391666   -0.000442
      6          1           0        2.047350   -0.315158    0.906443
      7          1           0        0.890511   -1.378583   -0.000257
      8          1           0        2.047489   -0.314789   -0.906414
 ---------------------------------------------------------------------

 SCF Done:  E(RB3LYP) =  -229.077507620     A.U. after   12 cycles

 The electronic state is 1-A.
 Alpha  occ. eigenvalues --  -19.22094 -19.16809 -10.33724 -10.25849  -1.12103
 Alpha  occ. eigenvalues --   -1.04271  -0.74834  -0.60580  -0.54262  -0.49212
 Alpha  occ. eigenvalues --   -0.48892  -0.43387  -0.41232  -0.36829  -0.31985
 Alpha  occ. eigenvalues --   -0.30263
 Alpha virt. eigenvalues --   -0.01904   0.00674   0.02273   0.03756   0.04736
 Alpha virt. eigenvalues --    0.04848   0.07618   0.08132   0.11924   0.14326
 Alpha virt. eigenvalues --    0.16619   0.17368   0.18904   0.22014   0.22021

 Mulliken atomic charges:
              1
     1  C    0.333408
     2  O   -0.441019
     3  O   -0.269388
     4  C   -0.243234
     5  H    0.129351
     6  H    0.153924
     7  H    0.183031
     8  H    0.153926
 Sum of Mulliken atomic charges =   0.00000

 Dipole moment (field-independent basis, Debye):
    X=              1.7413    Y=              0.8379    Z=             -0.0005  Tot=              1.9324
 Quadrupole moment (field-independent basis, Debye-Ang):
   XX=            -23.9175   YY=            -24.9027   ZZ=            -23.4286
   XY=             -5.0000   XZ=              0.0001   YZ=             -0.0004

 1\1\GINC-ROCK\SP\RB3LYP\6-31+G(d,p)\C2H4O2\STYLIANAKIS\19-Feb-2018\0\\
 # b3lyp/6-31+g(d,p)\\methylformate-H-Lp-ecl.hin\\0,1\C,0,-1.70128,0.70
 408,-0.03122\O,0,-1.74919,1.7593,-0.61904\O,0,-0.58305,0.0471,0.37838\
 C,0,0.6799,0.62955,0.10592\H,0,-2.60604,0.11723,0.25877\H,0,1.27628,-0
 .08275,-0.51212\H,0,0.60287,1.60009,-0.43581\H,0,1.21261,0.79636,1.072
 04\X,0,-0.61279,-0.44058,0.02958\X,0,-0.65075,0.08342,0.97376\\Version
 =EM64L-G09RevA.01\State=1-A\HF=-229.0775076\RMSD=1.269e-09\Dipole=0.49
 85641,-0.4929948,0.2939658\Quadrupole=2.7062585,-2.2592455,-0.4470131,

 Normal termination of Gaussian 09 at Mon Feb 19 01:32:26 2018.
