 Gaussian 09, Revision A.01,
 Gaussian 09:  EM64L-G09RevA.01  8-May-2009

 -------------------
 # b3lyp/6-31+g(d,p)
 -------------------

 --------------------------
 methylformate-C=O-Lp-g.hin
 --------------------------
 Symbolic Z-matrix:
 Charge =  0 Multiplicity = 1

                         Standard orientation:
 ---------------------------------------------------------------------
 Center     Atomic      Atomic             Coordinates (Angstroms)
 Number     Number       Type             X           Y           Z
 ---------------------------------------------------------------------
      1          6           0       -0.830592    0.438231    0.000005
      2          8           0       -1.328010   -0.663763    0.000000
      3          8           0        0.500274    0.717569    0.000004
      4          6           0        1.366394   -0.400331   -0.000004
      5          1           0       -1.415363    1.389387   -0.000034
      6          1           0        1.203245   -1.012056    0.919375
      7          1           0        1.203162   -1.012104   -0.919337
      8          1           0        2.416032   -0.023076   -0.000051
 ---------------------------------------------------------------------

 SCF Done:  E(RB3LYP) =  -229.078493968     A.U. after   12 cycles

 The electronic state is 1-A.
 Alpha  occ. eigenvalues --  -19.22072 -19.16926 -10.33624 -10.25976  -1.12344
 Alpha  occ. eigenvalues --   -1.04284  -0.74681  -0.60518  -0.54157  -0.49628
 Alpha  occ. eigenvalues --   -0.48944  -0.43516  -0.40860  -0.37042  -0.32334
 Alpha  occ. eigenvalues --   -0.30173
 Alpha virt. eigenvalues --   -0.02088   0.00631   0.02318   0.03653   0.04586
 Alpha virt. eigenvalues --    0.04662   0.07360   0.08481   0.12133   0.15673
 Alpha virt. eigenvalues --    0.16269   0.17467   0.19248   0.20809   0.22991

 Mulliken atomic charges:
              1
     1  C    0.327751
     2  O   -0.437459
     3  O   -0.273540
     4  C   -0.221796
     5  H    0.129298
     6  H    0.161013
     7  H    0.161014
     8  H    0.153718
 Sum of Mulliken atomic charges =   0.00000

 Dipole moment (field-independent basis, Debye):
    X=              1.6753    Y=              0.8751    Z=              0.0000  Tot=              1.8901
 Quadrupole moment (field-independent basis, Debye-Ang):
   XX=            -23.6443   YY=            -25.1955   ZZ=            -23.3564
   XY=             -4.9460   XZ=              0.0000   YZ=              0.0000

 1\1\GINC-ROCK\SP\RB3LYP\6-31+G(d,p)\C2H4O2\STYLIANAKIS\19-Feb-2018\0\\
 # b3lyp/6-31+g(d,p)\\methylformate-C=O-Lp-g.hin\\0,1\C,0,-1.67881,0.70
 996,-0.02886\O,0,-1.6802,1.76801,-0.61396\O,0,-0.58024,0.02427,0.38612
 \C,0,0.66783,0.6226,0.09597\H,0,-2.60202,0.14817,0.25173\H,0,0.79626,0
 .72607,-1.00806\H,0,0.74376,1.61554,0.60034\H,0,1.46988,-0.04431,0.490
 95\X,0,-0.61141,-0.46212,0.03462\X,0,-0.64232,0.06207,0.98262\\Version
 =EM64L-G09RevA.01\State=1-A\HF=-229.078494\RMSD=1.195e-09\Dipole=0.459
 5893,-0.5050959,0.2942924\Quadrupole=2.8691469,-2.4300851,-0.4390618,1

 Normal termination of Gaussian 09 at Mon Feb 19 01:32:18 2018.
