 Gaussian 09, Revision E.01,
 Gaussian 09:  ES64L-G09RevE.01 30-Nov-2015

 ------------------------------------
 # opt=modredundant b3lyp/6-31+g(d,p)
 ------------------------------------

 ----------------
 methanethiol-ecl
 ----------------
 Symbolic Z-matrix:
 Charge =  0 Multiplicity = 1

 SCF Done:  E(RB3LYP) =  -438.687431034     A.U. after   10 cycles
 SCF Done:  E(RB3LYP) =  -438.704064556     A.U. after   10 cycles
 SCF Done:  E(RB3LYP) =  -438.706413007     A.U. after   10 cycles
 SCF Done:  E(RB3LYP) =  -438.706427372     A.U. after    8 cycles
 SCF Done:  E(RB3LYP) =  -438.706428167     A.U. after    6 cycles
 Optimization completed.
    -- Stationary point found.

                         Standard orientation:
 ---------------------------------------------------------------------
 Center     Atomic      Atomic             Coordinates (Angstroms)
 Number     Number       Type             X           Y           Z
 ---------------------------------------------------------------------
      1          6           0       -1.172489    0.013940    0.000002
      2         16           0        0.671392   -0.088629    0.000002
      3          1           0        0.915598    1.235497   -0.000006
      4          1           0       -1.494470    1.055796   -0.000608
      5          1           0       -1.564229   -0.478956   -0.891215
      6          1           0       -1.564247   -0.477918    0.891786
 ---------------------------------------------------------------------

 The electronic state is 1-A.
 Alpha  occ. eigenvalues --  -88.88210 -10.22157  -7.94349  -5.90865  -5.90499
 Alpha  occ. eigenvalues --   -5.89798  -0.78123  -0.65253  -0.45381  -0.43264
 Alpha  occ. eigenvalues --   -0.39941  -0.33473  -0.24173
 Alpha virt. eigenvalues --   -0.01046   0.00722   0.04359   0.05328   0.05401
 Alpha virt. eigenvalues --    0.08043   0.08807   0.08922   0.10884   0.13721
 Alpha virt. eigenvalues --    0.17235   0.19505   0.31296   0.46282   0.46901

 Mulliken charges:
               1
     1  C   -0.567643
     2  S   -0.046824
     3  H    0.063756
     4  H    0.178841
     5  H    0.185936
     6  H    0.185935
 Sum of Mulliken charges =  -0.00000

 Dipole moment (field-independent basis, Debye):
    X=             -1.4760    Y=              1.0819    Z=             -0.0000  Tot=              1.8300
 Quadrupole moment (field-independent basis, Debye-Ang):
   XX=            -20.5370   YY=            -19.5298   ZZ=            -22.9721
   XY=              1.3853   XZ=              0.0001   YZ=              0.0000

 Normal termination of Gaussian 09 at Sun Jul 15 21:18:02 2018.
