 Gaussian 09, Revision A.01,
 Gaussian 09:  EM64L-G09RevA.01  8-May-2009

 -------------------
 # b3lyp/6-31+g(d,p)
 -------------------

 ----------------------------
 methylformate-C=O-Lp-ecl.hin
 ----------------------------
 Symbolic Z-matrix:
 Charge =  0 Multiplicity = 1

                         Standard orientation:
 ---------------------------------------------------------------------
 Center     Atomic      Atomic             Coordinates (Angstroms)
 Number     Number       Type             X           Y           Z
 ---------------------------------------------------------------------
      1          6           0        0.706337    0.281556   -0.217867
      2          8           0        1.741495   -0.104578    0.275506
      3          8           0       -0.432049   -0.451977   -0.344627
      4          6           0       -1.593818    0.116178    0.226742
      5          1           0        0.561729    1.310291   -0.628321
      6          1           0       -1.386575    0.418766    1.280569
      7          1           0       -1.929437    0.995105   -0.374405
      8          1           0       -2.396406   -0.658129    0.221875
 ---------------------------------------------------------------------

 SCF Done:  E(RB3LYP) =  -229.060983890     A.U. after   12 cycles

 The electronic state is 1-A.
 Alpha  occ. eigenvalues --  -19.20825 -19.17822 -10.34221 -10.27314  -1.11862
 Alpha  occ. eigenvalues --   -1.04908  -0.74217  -0.62327  -0.54529  -0.49978
 Alpha  occ. eigenvalues --   -0.49007  -0.44898  -0.41103  -0.36923  -0.31629
 Alpha  occ. eigenvalues --   -0.30116
 Alpha virt. eigenvalues --   -0.04074   0.00225   0.02423   0.02879   0.03675
 Alpha virt. eigenvalues --    0.06052   0.06697   0.07924   0.12216   0.14504
 Alpha virt. eigenvalues --    0.16132   0.17280   0.19323   0.21042   0.21709

 Mulliken atomic charges:
              1
     1  C    0.350183
     2  O   -0.378820
     3  O   -0.297501
     4  C   -0.250210
     5  H    0.109462
     6  H    0.153065
     7  H    0.144624
     8  H    0.169196
 Sum of Mulliken atomic charges =   0.00000

 Dipole moment (field-independent basis, Debye):
    X=             -3.2192    Y=              1.9026    Z=             -0.2147  Tot=              3.7456
 Quadrupole moment (field-independent basis, Debye-Ang):
   XX=            -25.8193   YY=            -24.1206   ZZ=            -23.7297
   XY=              0.7015   XZ=             -2.2498   YZ=             -0.5750

 1\1\GINC-ROCK\SP\RB3LYP\6-31+G(d,p)\C2H4O2\STYLIANAKIS\19-Feb-2018\0\\
 # b3lyp/6-31+g(d,p)\\methylformate-C=O-Lp-ecl.hin\\0,1\C,0,-1.66865,0.
 72343,-0.0344\O,0,-2.58475,0.16034,-0.58916\O,0,-0.57333,0.11772,0.498
 \C,0,0.67489,0.58067,0.02198\H,0,-1.61297,1.83085,0.10051\H,0,0.67686,
 0.57994,-1.09384\H,0,0.88125,1.60572,0.41341\H,0,1.46509,-0.11627,0.38
 747\X,0,-0.65246,-0.46482,0.37908\X,0,-0.60145,0.35431,1.04887\\Versio
 n=EM64L-G09RevA.01\State=1-A\HF=-229.0609839\RMSD=1.325e-09\Dipole=1.2
 212624,0.8168049,0.1136569\Quadrupole=-0.2287594,0.4481501,-0.2193907,

 Normal termination of Gaussian 09 at Mon Feb 19 01:32:10 2018.
