 Gaussian 09, Revision E.01,
 Gaussian 09:  ES64L-G09RevE.01 30-Nov-2015

 -----------------------
 # opt b3lyp/6-31+g(d,p)
 -----------------------

 --------------
 methanethiol-g
 --------------
 Symbolic Z-matrix:
 Charge =  0 Multiplicity = 1

 SCF Done:  E(RB3LYP) =  -438.707821228     A.U. after   10 cycles
 SCF Done:  E(RB3LYP) =  -438.708414410     A.U. after    9 cycles
 SCF Done:  E(RB3LYP) =  -438.708419453     A.U. after    7 cycles
 SCF Done:  E(RB3LYP) =  -438.708420582     A.U. after    7 cycles
 Optimization completed.
    -- Stationary point found.

                         Standard orientation:
 ---------------------------------------------------------------------
 Center     Atomic      Atomic             Coordinates (Angstroms)
 Number     Number       Type             X           Y           Z
 ---------------------------------------------------------------------
      1          6           0       -1.165730    0.019652    0.000032
      2         16           0        0.667917   -0.087085   -0.000028
      3          1           0        0.910108    1.239574    0.000132
      4          1           0       -1.535792    0.522767   -0.895429
      5          1           0       -1.530866   -1.009447   -0.000082
      6          1           0       -1.535745    0.522553    0.895632
 ---------------------------------------------------------------------

 The electronic state is 1-A.
 Alpha  occ. eigenvalues --  -88.88264 -10.22175  -7.94399  -5.90915  -5.90555
 Alpha  occ. eigenvalues --   -5.89844  -0.78291  -0.65189  -0.45368  -0.43438
 Alpha  occ. eigenvalues --   -0.39703  -0.33734  -0.24213
 Alpha virt. eigenvalues --   -0.00953   0.00878   0.04437   0.05380   0.05435
 Alpha virt. eigenvalues --    0.08121   0.08915   0.08929   0.12028   0.13778
 Alpha virt. eigenvalues --    0.16552   0.17462   0.31074   0.46267   0.46736

 Mulliken charges:
               1
     1  C   -0.555357
     2  S   -0.051377
     3  H    0.062821
     4  H    0.180963
     5  H    0.181987
     6  H    0.180963
 Sum of Mulliken charges =  -0.00000

 Dipole moment (field-independent basis, Debye):
    X=             -1.4514    Y=              0.9992    Z=              0.0002  Tot=              1.7621
 Quadrupole moment (field-independent basis, Debye-Ang):
   XX=            -20.5038   YY=            -19.5636   ZZ=            -22.9723
   XY=              1.4974   XZ=              0.0001   YZ=              0.0004

 Normal termination of Gaussian 09 at Sun Jul 15 21:17:55 2018.
