 Gaussian 09, Revision A.01,
 Gaussian 09:  EM64L-G09RevA.01  8-May-2009

 -------------------
 # b3lyp/6-31+g(d,p)
 -------------------

 ---------------------------
 N-methylpyrrolidine-nlp.hin
 ---------------------------
 Symbolic Z-matrix:
 Charge =  0 Multiplicity = 1

                         Standard orientation:
 ---------------------------------------------------------------------
 Center     Atomic      Atomic             Coordinates (Angstroms)
 Number     Number       Type             X           Y           Z
 ---------------------------------------------------------------------
      1          6           0       -1.490573    0.770306   -0.058762
      2          6           0       -1.490575   -0.770306   -0.058752
      3          6           0       -0.018066   -1.149228    0.161948
      4          6           0       -0.018064    1.149228    0.161955
      5          7           0        0.708063    0.000000   -0.334361
      6          6           0        2.119899   -0.000002   -0.024478
      7          1           0       -1.846112   -1.156741   -1.044158
      8          1           0       -2.147032   -1.193871    0.738369
      9          1           0        0.275033   -2.073610   -0.388859
     10          1           0        0.181534   -1.292924    1.251342
     11          1           0        0.181531    1.292920    1.251349
     12          1           0        0.275042    2.073618   -0.388848
     13          1           0        2.298613    0.000002    1.075660
     14          1           0        2.601181   -0.900112   -0.469977
     15          1           0        2.601181    0.900114   -0.469977
     16          1           0       -2.147042    1.193894    0.738344
     17          1           0       -1.846098    1.156726   -1.044186
 ---------------------------------------------------------------------

 SCF Done:  E(RB3LYP) =  -251.915206793     A.U. after   12 cycles

 The electronic state is 1-A.
 Alpha  occ. eigenvalues --  -14.32746 -10.20906 -10.20905 -10.20858 -10.18787
 Alpha  occ. eigenvalues --  -10.18767  -0.93993  -0.78125  -0.72244  -0.67241
 Alpha  occ. eigenvalues --   -0.57550  -0.57025  -0.49174  -0.48649  -0.44319
 Alpha  occ. eigenvalues --   -0.43024  -0.40564  -0.37983  -0.36167  -0.35944
 Alpha  occ. eigenvalues --   -0.34270  -0.33397  -0.31791  -0.21646
 Alpha virt. eigenvalues --    0.00757   0.02164   0.02840   0.02982   0.04680
 Alpha virt. eigenvalues --    0.04702   0.05881   0.06224   0.06441   0.08288
 Alpha virt. eigenvalues --    0.08938   0.10166   0.10788   0.10903   0.12239

 Mulliken atomic charges:
              1
     1  C   -0.290499
     2  C   -0.290494
     3  C   -0.251259
     4  C   -0.251256
     5  N   -0.098441
     6  C   -0.295492
     7  H    0.147802
     8  H    0.139308
     9  H    0.132613
    10  H    0.121423
    11  H    0.121424
    12  H    0.132613
    13  H    0.123124
    14  H    0.136013
    15  H    0.136012
    16  H    0.139307
    17  H    0.147802
 Sum of Mulliken atomic charges =   0.00000

 Dipole moment (field-independent basis, Debye):
    X=             -0.1111    Y=              0.0000    Z=              0.4568  Tot=              0.4701
 Quadrupole moment (field-independent basis, Debye-Ang):
   XX=            -38.9729   YY=            -39.0448   ZZ=            -41.6338
   XY=              0.0000   XZ=             -0.1134   YZ=              0.0000

 Normal termination of Gaussian 09 at Mon Feb 19 01:33:40 2018.
