 Gaussian 09, Revision A.01,
 Gaussian 09:  EM64L-G09RevA.01  8-May-2009

 -------------------
 # b3lyp/6-31+g(d,p)
 -------------------

 --------------------------
 N-methylpyrrolidine-ts.hin
 --------------------------
 Symbolic Z-matrix:
 Charge =  0 Multiplicity = 1

                         Standard orientation:
 ---------------------------------------------------------------------
 Center     Atomic      Atomic             Coordinates (Angstroms)
 Number     Number       Type             X           Y           Z
 ---------------------------------------------------------------------
      1          6           0       -1.484362    0.733920   -0.211665
      2          6           0       -1.476373   -0.740348    0.222838
      3          6           0       -0.053910   -1.197630   -0.134486
      4          6           0       -0.058437    1.200956    0.119457
      5          7           0        0.724086    0.002922   -0.006742
      6          6           0        2.157747    0.000854    0.006982
      7          1           0       -2.267838   -1.346230   -0.279043
      8          1           0       -1.627079   -0.802005    1.327609
      9          1           0        0.001560   -1.547037   -1.192148
     10          1           0        0.318480   -1.995269    0.550242
     11          1           0        0.013102    1.560774    1.172578
     12          1           0        0.294806    1.995831   -0.578395
     13          1           0        2.514490   -0.105865    1.056230
     14          1           0        2.548322   -0.846722   -0.600603
     15          1           0        2.553800    0.950387   -0.418769
     16          1           0       -2.270427    1.335038    0.304237
     17          1           0       -1.655806    0.794133   -1.313507
 ---------------------------------------------------------------------

 SCF Done:  E(RB3LYP) =  -251.904999783     A.U. after   11 cycles

 The electronic state is 1-A.
 Alpha  occ. eigenvalues --  -14.30947 -10.20914 -10.20894 -10.20854 -10.18956
 Alpha  occ. eigenvalues --  -10.18928  -0.92784  -0.78160  -0.72413  -0.67292
 Alpha  occ. eigenvalues --   -0.58176  -0.55741  -0.49057  -0.48684  -0.43495
 Alpha  occ. eigenvalues --   -0.41794  -0.41654  -0.37463  -0.37326  -0.36355
 Alpha  occ. eigenvalues --   -0.34060  -0.33699  -0.32508  -0.18097
 Alpha virt. eigenvalues --    0.00670   0.01949   0.02896   0.03013   0.04745
 Alpha virt. eigenvalues --    0.04943   0.05715   0.06256   0.06600   0.07859
 Alpha virt. eigenvalues --    0.09133   0.10326   0.10550   0.10855   0.10989

 Mulliken atomic charges:
              1
     1  C   -0.289518
     2  C   -0.293167
     3  C   -0.232161
     4  C   -0.231907
     5  N   -0.129879
     6  C   -0.263722
     7  H    0.138212
     8  H    0.146591
     9  H    0.120644
    10  H    0.121484
    11  H    0.119759
    12  H    0.118342
    13  H    0.129157
    14  H    0.131825
    15  H    0.129552
    16  H    0.138523
    17  H    0.146265
 Sum of Mulliken atomic charges =   0.00000

 Dipole moment (field-independent basis, Debye):
    X=             -0.2450    Y=             -0.0033    Z=             -0.0896  Tot=              0.2609
 Quadrupole moment (field-independent basis, Debye-Ang):
   XX=            -39.3356   YY=            -40.1539   ZZ=            -40.3943
   XY=              0.0381   XZ=             -0.3532   YZ=             -0.2712

 Normal termination of Gaussian 09 at Mon Feb 19 01:34:15 2018.
