 Gaussian 09, Revision A.01,
 Gaussian 09:  EM64L-G09RevA.01  8-May-2009

 -------------------
 # b3lyp/6-31+g(d,p)
 -------------------

 --------------------------
 N-methylpyrrolidine-lp.hin
 --------------------------
 Symbolic Z-matrix:
 Charge =  0 Multiplicity = 1

                         Standard orientation:
 ---------------------------------------------------------------------
 Center     Atomic      Atomic             Coordinates (Angstroms)
 Number     Number       Type             X           Y           Z
 ---------------------------------------------------------------------
      1          6           0       -1.493389    0.770263   -0.051003
      2          6           0       -1.493253   -0.770368   -0.051723
      3          6           0       -0.016445   -1.145576    0.153546
      4          6           0       -0.016428    1.145695    0.153006
      5          7           0        0.711578   -0.000071   -0.359520
      6          6           0        2.118896   -0.000011   -0.012441
      7          1           0       -1.856700   -1.156541   -1.034300
      8          1           0       -2.141372   -1.195219    0.751488
      9          1           0        0.267728   -2.082126   -0.383060
     10          1           0        0.188581   -1.280908    1.243242
     11          1           0        0.189210    1.281962    1.242471
     12          1           0        0.267359    2.081862   -0.384482
     13          1           0        2.271534    0.000173    1.091804
     14          1           0        2.617575   -0.900640   -0.439691
     15          1           0        2.617591    0.900449   -0.440014
     16          1           0       -2.140541    1.194090    0.753533
     17          1           0       -1.858305    1.157377   -1.032664
 ---------------------------------------------------------------------

 SCF Done:  E(RB3LYP) =  -251.915243591     A.U. after   12 cycles

 The electronic state is 1-A.
 Alpha  occ. eigenvalues --  -14.32930 -10.20940 -10.20939 -10.20898 -10.18810
 Alpha  occ. eigenvalues --  -10.18791  -0.93933  -0.78106  -0.72150  -0.67197
 Alpha  occ. eigenvalues --   -0.57503  -0.57156  -0.49123  -0.48640  -0.44259
 Alpha  occ. eigenvalues --   -0.42997  -0.40554  -0.38043  -0.36039  -0.35854
 Alpha  occ. eigenvalues --   -0.34243  -0.33399  -0.31766  -0.21938
 Alpha virt. eigenvalues --    0.00759   0.02146   0.02841   0.02963   0.04683
 Alpha virt. eigenvalues --    0.04687   0.05882   0.06207   0.06490   0.08331
 Alpha virt. eigenvalues --    0.08892   0.10185   0.10782   0.10931   0.12269

 Mulliken atomic charges:
              1
     1  C   -0.295139
     2  C   -0.295571
     3  C   -0.246282
     4  C   -0.246571
     5  N   -0.105987
     6  C   -0.294415
     7  H    0.148013
     8  H    0.139745
     9  H    0.133136
    10  H    0.122505
    11  H    0.122499
    12  H    0.133138
    13  H    0.123870
    14  H    0.136653
    15  H    0.136657
    16  H    0.139767
    17  H    0.147981
 Sum of Mulliken atomic charges =   0.00000

 Dipole moment (field-independent basis, Debye):
    X=             -0.1210    Y=              0.0000    Z=              0.5370  Tot=              0.5505
 Quadrupole moment (field-independent basis, Debye-Ang):
   XX=            -38.8884   YY=            -38.9873   ZZ=            -41.7371
   XY=             -0.0002   XZ=             -0.0358   YZ=             -0.0012

 Normal termination of Gaussian 09 at Mon Feb 19 01:33:04 2018.
