 Gaussian 09, Revision A.01,
 Gaussian 09:  EM64L-G09RevA.01  8-May-2009

 -------------------
 # b3lyp/6-31+g(d,p)
 -------------------

 ---------------------------------------------
 N-Me-spiro[piperidine-2,2'-adamantane]-ch.hin
 ---------------------------------------------
 Symbolic Z-matrix:
 Charge =  0 Multiplicity = 1

                         Standard orientation:
 ---------------------------------------------------------------------
 Center     Atomic      Atomic             Coordinates (Angstroms)
 Number     Number       Type             X           Y           Z
 ---------------------------------------------------------------------
      1          6           0       -2.371751   -1.108932   -0.400945
      2          6           0       -1.324768   -1.720659    0.539970
      3          6           0       -0.308420   -0.641267    0.964972
      4          6           0        0.483112   -0.028844   -0.237563
      5          6           0       -0.634191    0.547478   -1.166760
      6          6           0       -1.658172   -0.513259   -1.622394
      7          6           0       -1.424268    1.663632   -0.448930
      8          6           0       -2.133771    1.082897    0.784451
      9          6           0       -1.086592    0.457559    1.719843
     10          6           0       -3.133306    0.003414    0.338258
     11          6           0        1.313056   -1.097023   -1.010971
     12          6           0        2.429091   -1.656701   -0.113342
     13          6           0        3.331211   -0.504152    0.338276
     14          6           0        2.468980    0.526992    1.082917
     15          7           0        1.403204    1.041820    0.219785
     16          6           0        1.964958    1.881561   -0.835871
     17          1           0       -3.092766   -1.897991   -0.730250
     18          1           0       -0.821302   -2.587961    0.055431
     19          1           0       -1.834486   -2.142481    1.438810
     20          1           0        0.374342   -1.129722    1.696221
     21          1           0       -0.178572    0.958272   -2.098993
     22          1           0       -1.177155   -1.317894   -2.223738
     23          1           0       -2.410900   -0.050584   -2.304247
     24          1           0       -2.173586    2.113665   -1.142423
     25          1           0       -0.762213    2.502209   -0.133805
     26          1           0       -2.682062    1.895876    1.322416
     27          1           0       -1.592179    0.027251    2.616800
     28          1           0       -0.397836    1.243610    2.108092
     29          1           0       -3.669565   -0.416166    1.222220
     30          1           0       -3.910729    0.447973   -0.327322
     31          1           0        1.747452   -0.676177   -1.946010
     32          1           0        0.692321   -1.954965   -1.347818
     33          1           0        3.036504   -2.394527   -0.691127
     34          1           0        2.019282   -2.213056    0.760921
     35          1           0        3.874621   -0.056292   -0.525679
     36          1           0        4.116483   -0.897089    1.028026
     37          1           0        3.112153    1.367770    1.436879
     38          1           0        2.053362    0.092055    2.019620
     39          1           0        1.183171    2.487917   -1.342648
     40          1           0        2.663557    2.635920   -0.406262
     41          1           0        2.516660    1.313464   -1.615078
 ---------------------------------------------------------------------

 SCF Done:  E(RB3LYP) =  -641.444924870     A.U. after   14 cycles

 The electronic state is 1-A.
 Alpha  occ. eigenvalues --  -14.32300 -10.22032 -10.20722 -10.20415 -10.18565
 Alpha  occ. eigenvalues --  -10.18542 -10.18369 -10.18367 -10.18131 -10.18060
 Alpha  occ. eigenvalues --  -10.18029 -10.17988 -10.17948 -10.17619 -10.17370
 Alpha  occ. eigenvalues --  -10.17293  -0.92726  -0.86039  -0.78825  -0.76983
 Alpha  occ. eigenvalues --   -0.76322  -0.76068  -0.71361  -0.68462  -0.65700
 Alpha  occ. eigenvalues --   -0.62861  -0.61543  -0.59024  -0.57250  -0.56802
 Alpha  occ. eigenvalues --   -0.54247  -0.51477  -0.48293  -0.46376  -0.45153
 Alpha  occ. eigenvalues --   -0.45076  -0.44243  -0.42997  -0.42652  -0.42051
 Alpha  occ. eigenvalues --   -0.41175  -0.40916  -0.39134  -0.38920  -0.38672
 Alpha  occ. eigenvalues --   -0.38293  -0.37739  -0.36651  -0.35025  -0.34876
 Alpha  occ. eigenvalues --   -0.34179  -0.33076  -0.32415  -0.32226  -0.31682
 Alpha  occ. eigenvalues --   -0.31334  -0.30400  -0.27881  -0.27587  -0.27029
 Alpha  occ. eigenvalues --   -0.20205
 Alpha virt. eigenvalues --   -0.00643   0.00635   0.00993   0.01239   0.02534
 Alpha virt. eigenvalues --    0.02826   0.02895   0.02967   0.03542   0.05103
 Alpha virt. eigenvalues --    0.05416   0.05718   0.05781   0.05910   0.07019

 Mulliken atomic charges:
              1
     1  C    0.218593
     2  C   -0.602110
     3  C    0.602631
     4  C   -1.701541
     5  C    0.393965
     6  C   -0.646515
     7  C   -0.398305
     8  C    0.207603
     9  C   -0.445649
    10  C   -0.472451
    11  C    0.052903
    12  C   -0.285163
    13  C   -0.291443
    14  C    0.083504
    15  N    0.165774
    16  C   -0.144295
    17  H    0.112518
    18  H    0.131322
    19  H    0.132792
    20  H    0.115037
    21  H    0.120153
    22  H    0.132299
    23  H    0.133683
    24  H    0.126672
    25  H    0.141937
    26  H    0.112585
    27  H    0.126684
    28  H    0.151095
    29  H    0.127782
    30  H    0.127971
    31  H    0.138778
    32  H    0.131743
    33  H    0.129271
    34  H    0.141100
    35  H    0.138062
    36  H    0.126263
    37  H    0.126163
    38  H    0.136192
    39  H    0.136589
    40  H    0.134376
    41  H    0.131431
 Sum of Mulliken atomic charges =   0.00000

 Dipole moment (field-independent basis, Debye):
    X=              0.5201    Y=             -0.3923    Z=             -0.3199  Tot=              0.7258
 Quadrupole moment (field-independent basis, Debye-Ang):
   XX=           -101.9698   YY=           -103.4310   ZZ=           -102.4670
   XY=              0.7575   XZ=              0.0943   YZ=             -1.2580

 Normal termination of Gaussian 09 at Mon Feb 19 03:32:01 2018.
