 Gaussian 09, Revision E.01,
 Gaussian 09:  ES64L-G09RevE.01 30-Nov-2015

 -------------------
 # b3lyp/6-31+g(d,p)
 -------------------

 -----------------------
 N_Me_Acetamide_ts_b3lyp
 -----------------------
 Symbolic Z-matrix:
 Charge =  0 Multiplicity = 1

                         Standard orientation:
 ---------------------------------------------------------------------
 Center     Atomic      Atomic             Coordinates (Angstroms)
 Number     Number       Type             X           Y           Z
 ---------------------------------------------------------------------
      1          6           0       -1.367948   -1.026835   -0.087692
      2          6           0       -0.523894    0.221052    0.087767
      3          7           0        0.752630    0.022021    0.566521
      4          6           0        1.853873   -0.187820   -0.340404
      5          8           0       -0.953851    1.318949   -0.174546
      6          1           0       -0.883469   -1.718099   -0.814746
      7          1           0       -1.483729   -1.550385    0.887679
      8          1           0       -2.383564   -0.774622   -0.471681
      9          1           0        0.885022    0.034620    1.579585
     10          1           0        1.528716   -0.149131   -1.405626
     11          1           0        2.621922    0.598618   -0.166872
     12          1           0        2.305315   -1.185121   -0.135648
 ---------------------------------------------------------------------

 SCF Done:  E(RB3LYP) =  -248.502450254     A.U. after   12 cycles

 The electronic state is 1-A.
 Alpha  occ. eigenvalues --  -19.15046 -14.33290 -10.30549 -10.23180 -10.20035
 Alpha  occ. eigenvalues --   -1.06181  -0.91573  -0.74565  -0.69227  -0.58026
 Alpha  occ. eigenvalues --   -0.50086  -0.47871  -0.45855  -0.43007  -0.42245
 Alpha  occ. eigenvalues --   -0.41013  -0.39123  -0.36242  -0.27039  -0.22773
 Alpha virt. eigenvalues --   -0.03167  -0.00080   0.01924   0.02594   0.04501
 Alpha virt. eigenvalues --    0.05649   0.06008   0.07085   0.07720   0.08418
 Alpha virt. eigenvalues --    0.10204   0.10564   0.12644   0.13743   0.16278

 Mulliken charges:
               1
     1  C   -0.459358
     2  C    0.377692
     3  N   -0.466386
     4  C   -0.325245
     5  O   -0.367083
     6  H    0.162907
     7  H    0.164582
     8  H    0.171261
     9  H    0.306512
    10  H    0.149092
    11  H    0.147989
    12  H    0.138038
 Sum of Mulliken charges =  -0.00000

 Dipole moment (field-independent basis, Debye):
    X=              1.3943    Y=             -2.7572    Z=              0.7967  Tot=              3.1908
 Quadrupole moment (field-independent basis, Debye-Ang):
   XX=            -30.7797   YY=            -36.2461   ZZ=            -28.1428
   XY=              2.8851   XZ=             -0.3176   YZ=              0.7536

 Normal termination of Gaussian 09 at Fri Jul 27 23:46:59 2018.
