 Gaussian 09, Revision E.01,
 Gaussian 09:  ES64L-G09RevE.01 30-Nov-2015

 -----------------------
 # opt b3lyp/6-31+g(d,p)
 -----------------------

 -----------------
 N-Me-acetamide-EZ
 -----------------
 Symbolic Z-matrix:
 Charge =  0 Multiplicity = 1

 SCF Done:  E(RB3LYP) =  -248.502450254     A.U. after   12 cycles
 SCF Done:  E(RB3LYP) =  -248.507449298     A.U. after   11 cycles
 SCF Done:  E(RB3LYP) =  -248.507915087     A.U. after   11 cycles
 SCF Done:  E(RB3LYP) =  -248.509851370     A.U. after   12 cycles
 SCF Done:  E(RB3LYP) =  -248.480758446     A.U. after   12 cycles
 SCF Done:  E(RB3LYP) =  -248.510667212     A.U. after    9 cycles
 SCF Done:  E(RB3LYP) =  -248.521695437     A.U. after   13 cycles
 SCF Done:  E(RB3LYP) =  -248.504744640     A.U. after   12 cycles
 SCF Done:  E(RB3LYP) =  -248.522315296     A.U. after    9 cycles
 SCF Done:  E(RB3LYP) =  -248.527510944     A.U. after   13 cycles
 SCF Done:  E(RB3LYP) =  -248.548170101     A.U. after   10 cycles
 SCF Done:  E(RB3LYP) =  -248.548240341     A.U. after    9 cycles
 SCF Done:  E(RB3LYP) =  -248.548287433     A.U. after   10 cycles
 SCF Done:  E(RB3LYP) =  -248.548377961     A.U. after   10 cycles
 SCF Done:  E(RB3LYP) =  -248.548584707     A.U. after   10 cycles
 SCF Done:  E(RB3LYP) =  -248.548638702     A.U. after   12 cycles
 SCF Done:  E(RB3LYP) =  -248.548722242     A.U. after   10 cycles
 SCF Done:  E(RB3LYP) =  -248.548731503     A.U. after   10 cycles
 SCF Done:  E(RB3LYP) =  -248.548732307     A.U. after    8 cycles
 SCF Done:  E(RB3LYP) =  -248.548732411     A.U. after    7 cycles
 Optimization completed.
    -- Stationary point found.

                         Standard orientation:
 ---------------------------------------------------------------------
 Center     Atomic      Atomic             Coordinates (Angstroms)
 Number     Number       Type             X           Y           Z
 ---------------------------------------------------------------------
      1          6           0       -1.820785   -0.563435    0.004325
      2          6           0       -0.485669    0.163353   -0.001903
      3          7           0        0.624939   -0.635395   -0.015122
      4          6           0        1.978342   -0.102440    0.006083
      5          8           0       -0.420182    1.390270   -0.001173
      6          1           0       -2.403333   -0.230745   -0.859119
      7          1           0       -1.731552   -1.653556   -0.024046
      8          1           0       -2.372316   -0.274327    0.903469
      9          1           0        0.498763   -1.635400    0.023745
     10          1           0        1.926469    0.953963   -0.260113
     11          1           0        2.432708   -0.190117    1.000399
     12          1           0        2.604810   -0.629084   -0.720125
 ---------------------------------------------------------------------

 The electronic state is 1-A.
 Alpha  occ. eigenvalues --  -19.11866 -14.37338 -10.29445 -10.22358 -10.19804
 Alpha  occ. eigenvalues --   -1.03590  -0.92667  -0.75744  -0.69411  -0.59080
 Alpha  occ. eigenvalues --   -0.51087  -0.47199  -0.46399  -0.43013  -0.41096
 Alpha  occ. eigenvalues --   -0.40190  -0.39318  -0.35802  -0.26258  -0.25655
 Alpha virt. eigenvalues --   -0.00652   0.01747   0.01933   0.03175   0.04293
 Alpha virt. eigenvalues --    0.05480   0.06375   0.07433   0.08732   0.08967
 Alpha virt. eigenvalues --    0.10636   0.10886   0.14053   0.14722   0.16059

 Mulliken charges:
               1
     1  C   -0.478719
     2  C    0.406111
     3  N   -0.354457
     4  C   -0.308111
     5  O   -0.535707
     6  H    0.185378
     7  H    0.129531
     8  H    0.184511
     9  H    0.288269
    10  H    0.192482
    11  H    0.149170
    12  H    0.141541
 Sum of Mulliken charges =  -0.00000

 Dipole moment (field-independent basis, Debye):
    X=              0.8101    Y=             -3.9037    Z=              0.0523  Tot=              3.9872
 Quadrupole moment (field-independent basis, Debye-Ang):
   XX=            -27.1348   YY=            -34.0870   ZZ=            -31.6200
   XY=              1.2594   XZ=             -0.0514   YZ=             -0.1531

 Normal termination of Gaussian 09 at Tue Jul 17 15:04:14 2018.
