 Gaussian 09, Revision E.01,
 Gaussian 09:  ES64L-G09RevE.01 30-Nov-2015

 ------------------------------------
 # opt=modredundant b3lyp/6-31+g(d,p)
 ------------------------------------

 -----------------------
 N-me-piperidine-sofa-eq
 -----------------------
 Symbolic Z-matrix:
 Charge =  0 Multiplicity = 1

 SCF Done:  E(RB3LYP) =  -291.222042656     A.U. after   12 cycles
 SCF Done:  E(RB3LYP) =  -291.226118879     A.U. after   10 cycles
 SCF Done:  E(RB3LYP) =  -291.226484119     A.U. after   10 cycles
 SCF Done:  E(RB3LYP) =  -291.226629826     A.U. after    9 cycles
 SCF Done:  E(RB3LYP) =  -291.226748961     A.U. after   10 cycles
 SCF Done:  E(RB3LYP) =  -291.226823208     A.U. after    9 cycles
 SCF Done:  E(RB3LYP) =  -291.226826566     A.U. after    8 cycles
 Optimization completed.
    -- Stationary point found.

                         Standard orientation:
 ---------------------------------------------------------------------
 Center     Atomic      Atomic             Coordinates (Angstroms)
 Number     Number       Type             X           Y           Z
 ---------------------------------------------------------------------
      1          6           0       -1.161819    1.317256    0.015777
      2          6           0       -1.946410   -0.022571   -0.140143
      3          6           0       -1.115958   -1.334013   -0.109992
      4          6           0        0.321063   -1.155213    0.376470
      5          7           0        0.942072   -0.022491   -0.309749
      6          6           0        0.369583    1.219708    0.202123
      7          1           0       -1.572151    1.890975    0.852894
      8          1           0       -1.349097    1.920676   -0.879493
      9          1           0       -2.518697    0.009365   -1.071503
     10          1           0       -2.694291   -0.070691    0.660144
     11          1           0       -1.059815   -1.745360   -1.124558
     12          1           0       -1.621045   -2.086755    0.506504
     13          1           0        0.895195   -2.061778    0.155379
     14          1           0        0.357089   -1.012033    1.477963
     15          6           0        2.392254   -0.024306   -0.170615
     16          1           0        0.852815    2.061810   -0.305170
     17          1           0        0.618027    1.318766    1.281659
     18          1           0        2.818248    0.818403   -0.724843
     19          1           0        2.722823    0.057855    0.884494
     20          1           0        2.804120   -0.948968   -0.586933
 ---------------------------------------------------------------------

 The electronic state is 1-A.
 Alpha  occ. eigenvalues --  -14.32900 -10.20712 -10.20614 -10.20340 -10.18343
 Alpha  occ. eigenvalues --  -10.18311 -10.18065  -0.92643  -0.78587  -0.75033
 Alpha  occ. eigenvalues --   -0.69304  -0.62617  -0.61571  -0.53446  -0.48488
 Alpha  occ. eigenvalues --   -0.47108  -0.46162  -0.43743  -0.41718  -0.39554
 Alpha  occ. eigenvalues --   -0.38483  -0.38310  -0.36407  -0.34713  -0.32143
 Alpha  occ. eigenvalues --   -0.31220  -0.30650  -0.21689
 Alpha virt. eigenvalues --    0.00614   0.02060   0.02641   0.02910   0.04043
 Alpha virt. eigenvalues --    0.04662   0.05597   0.05876   0.06156   0.07503
 Alpha virt. eigenvalues --    0.08535   0.09083   0.09553   0.10134   0.11376

 Mulliken charges:
               1
     1  C   -0.311478
     2  C   -0.327739
     3  C   -0.333834
     4  C   -0.210744
     5  N   -0.078344
     6  C   -0.228347
     7  H    0.142510
     8  H    0.144675
     9  H    0.145001
    10  H    0.140047
    11  H    0.150348
    12  H    0.134896
    13  H    0.125307
    14  H    0.121906
    15  C   -0.259682
    16  H    0.127416
    17  H    0.120278
    18  H    0.135343
    19  H    0.127099
    20  H    0.135340
 Sum of Mulliken charges =   0.00000

 Dipole moment (field-independent basis, Debye):
    X=             -0.0093    Y=              0.0234    Z=              0.4609  Tot=              0.4616
 Quadrupole moment (field-independent basis, Debye-Ang):
   XX=            -45.3620   YY=            -45.1861   ZZ=            -48.3357
   XY=             -0.1376   XZ=             -0.2574   YZ=             -0.3601

 Normal termination of Gaussian 09 at Tue Jul 17 15:44:11 2018.
