 Gaussian 09, Revision A.01,
 Gaussian 09:  EM64L-G09RevA.01  8-May-2009

 -------------------
 # b3lyp/6-31+g(d,p)
 -------------------

 --------------------------------------------
 N-Me-spiro[piperidine-2,2'-adamantane]-b.hin
 --------------------------------------------
 Symbolic Z-matrix:
 Charge =  0 Multiplicity = 1

                         Standard orientation:
 ---------------------------------------------------------------------
 Center     Atomic      Atomic             Coordinates (Angstroms)
 Number     Number       Type             X           Y           Z
 ---------------------------------------------------------------------
      1          6           0        2.306038   -1.253601   -0.078278
      2          6           0        1.322727   -1.243631   -1.263945
      3          6           0        0.347553   -0.040661   -1.143204
      4          6           0       -0.507700   -0.105313    0.171349
      5          6           0        0.569411   -0.070903    1.306678
      6          6           0        1.540504   -1.268408    1.253538
      7          6           0        1.416647    1.217323    1.233124
      8          6           0        2.239570    1.238351   -0.065572
      9          6           0        1.293443    1.177165   -1.273081
     10          6           0        3.171353    0.016952   -0.117998
     11          6           0       -1.257300   -1.470597    0.287098
     12          6           0       -2.518702   -1.525232   -0.585927
     13          6           0       -3.443579   -0.346198   -0.266513
     14          6           0       -2.811373    0.523727    0.824526
     15          7           0       -1.470541    0.996496    0.479217
     16          6           0       -1.608903    2.041038   -0.527315
     17          1           0        2.968767   -2.152167   -0.142597
     18          1           0        0.798229   -2.219736   -1.354623
     19          1           0        1.899270   -1.183469   -2.217510
     20          1           0       -0.333698   -0.070947   -2.026055
     21          1           0        0.049730   -0.090035    2.296598
     22          1           0        1.016599   -2.240389    1.395065
     23          1           0        2.260890   -1.211168    2.103813
     24          1           0        2.105315    1.269954    2.109583
     25          1           0        0.773952    2.125382    1.296637
     26          1           0        2.853604    2.172159   -0.110387
     27          1           0        1.889968    1.109550   -2.213624
     28          1           0        0.770506    2.143929   -1.400529
     29          1           0        3.788168    0.036428   -1.047711
     30          1           0        3.886413    0.035006    0.738359
     31          1           0       -1.529850   -1.688531    1.345873
     32          1           0       -0.645165   -2.353920    0.014019
     33          1           0       -3.052003   -2.493397   -0.425578
     34          1           0       -2.227143   -1.500178   -1.662704
     35          1           0       -4.434721   -0.718506    0.088232
     36          1           0       -3.646636    0.256224   -1.183341
     37          1           0       -2.775569   -0.021828    1.796602
     38          1           0       -3.487213    1.379414    1.064328
     39          1           0       -2.504250    2.679299   -0.349252
     40          1           0       -0.788077    2.782002   -0.435831
     41          1           0       -1.701434    1.639387   -1.560767
 ---------------------------------------------------------------------

 SCF Done:  E(RB3LYP) =  -641.420373343     A.U. after   14 cycles

 The electronic state is 1-A.
 Alpha  occ. eigenvalues --  -14.32375 -10.22333 -10.20636 -10.20191 -10.19387
 Alpha  occ. eigenvalues --  -10.18448 -10.18434 -10.18297 -10.18181 -10.18169
 Alpha  occ. eigenvalues --  -10.18139 -10.17716 -10.17680 -10.17592 -10.17535
 Alpha  occ. eigenvalues --  -10.17179  -0.92522  -0.86107  -0.79182  -0.76983
 Alpha  occ. eigenvalues --   -0.76435  -0.75930  -0.70626  -0.68767  -0.65746
 Alpha  occ. eigenvalues --   -0.63636  -0.61605  -0.58407  -0.57671  -0.56789
 Alpha  occ. eigenvalues --   -0.53613  -0.50712  -0.48643  -0.48362  -0.45202
 Alpha  occ. eigenvalues --   -0.44777  -0.44030  -0.43124  -0.42825  -0.42122
 Alpha  occ. eigenvalues --   -0.41379  -0.40070  -0.39788  -0.38769  -0.38333
 Alpha  occ. eigenvalues --   -0.37777  -0.37356  -0.36915  -0.35559  -0.34412
 Alpha  occ. eigenvalues --   -0.34023  -0.32701  -0.32338  -0.32246  -0.31544
 Alpha  occ. eigenvalues --   -0.31128  -0.29907  -0.27954  -0.27719  -0.27069
 Alpha  occ. eigenvalues --   -0.20126
 Alpha virt. eigenvalues --   -0.00721   0.00657   0.00810   0.01211   0.02599
 Alpha virt. eigenvalues --    0.02789   0.02949   0.03039   0.03572   0.04832
 Alpha virt. eigenvalues --    0.05126   0.05448   0.05877   0.06017   0.06816

 Mulliken atomic charges:
              1
     1  C    0.224583
     2  C   -0.593367
     3  C    0.528969
     4  C   -2.313850
     5  C    0.938845
     6  C   -0.559450
     7  C   -0.471311
     8  C    0.238663
     9  C   -0.494563
    10  C   -0.476640
    11  C    0.085517
    12  C   -0.345452
    13  C   -0.224573
    14  C   -0.029381
    15  N    0.405881
    16  C   -0.165854
    17  H    0.112715
    18  H    0.126883
    19  H    0.133641
    20  H    0.118706
    21  H    0.119257
    22  H    0.130936
    23  H    0.130142
    24  H    0.128461
    25  H    0.151154
    26  H    0.112060
    27  H    0.130456
    28  H    0.123636
    29  H    0.126801
    30  H    0.127991
    31  H    0.150738
    32  H    0.135484
    33  H    0.134451
    34  H    0.140490
    35  H    0.131366
    36  H    0.137762
    37  H    0.131099
    38  H    0.126409
    39  H    0.127959
    40  H    0.127857
    41  H    0.135529
 Sum of Mulliken atomic charges =   0.00000

 Dipole moment (field-independent basis, Debye):
    X=             -0.5163    Y=             -0.4047    Z=             -0.6322  Tot=              0.9110
 Quadrupole moment (field-independent basis, Debye-Ang):
   XX=           -101.6849   YY=           -102.3051   ZZ=           -103.7240
   XY=             -0.0170   XZ=             -0.2742   YZ=             -1.4838

 Normal termination of Gaussian 09 at Mon Feb 19 03:14:52 2018.
