 Gaussian 09, Revision C.01,
 Gaussian 09:  AM64L-G09RevC.01 23-Sep-2011

 -------------------
 # b3lyp/6-31+g(d,p)
 -------------------

 99/5=1,9=1/99;
 ----------
 tBu-CMe2Cl
 ----------
 Charge =  0 Multiplicity = 1

                         Standard orientation:
 ---------------------------------------------------------------------
 Center     Atomic      Atomic             Coordinates (Angstroms)
 Number     Number       Type             X           Y           Z
 ---------------------------------------------------------------------
      1          6           0       -0.964153   -0.160660   -0.000002
      2          6           0        0.483526    0.450689    0.000000
      3          6           0        0.806943    1.278516   -1.246921
      4          6           0        0.806935    1.278527    1.246916
      5         17           0        1.717262   -0.928243    0.000006
      6          1           0        1.831368    1.626092   -1.197234
      7          1           0        0.695333    0.708100   -2.158050
      8          1           0        0.162341    2.149019   -1.297966
      9          1           0        1.831372    1.626070    1.197249
     10          1           0        0.162359    2.149050    1.297927
     11          1           0        0.695282    0.708129    2.158052
     12          6           0       -1.217989   -1.028919    1.246795
     13          6           0       -2.011940    0.973891   -0.000040
     14          6           0       -1.217957   -1.028981   -1.246761
     15          1           0       -2.216006   -1.452160    1.189272
     16          1           0       -0.514475   -1.848343    1.319754
     17          1           0       -1.167921   -0.453730    2.164341
     18          1           0       -3.004823    0.535627   -0.000059
     19          1           0       -1.941113    1.604189    0.878994
     20          1           0       -1.941071    1.604174   -0.879081
     21          1           0       -2.215951   -1.452273   -1.189205
     22          1           0       -1.167931   -0.453829   -2.164330
     23          1           0       -0.514402   -1.848371   -1.319691
 ---------------------------------------------------------------------

 SCF Done:  E(RB3LYP) =  -736.018032551     A.U. after   13 cycles

 The electronic state is 1-A.
 Alpha  occ. eigenvalues -- -101.52452 -10.26144 -10.21500 -10.18619 -10.18618
 Alpha  occ. eigenvalues --  -10.18277 -10.17395 -10.17395  -9.44027  -7.20373
 Alpha  occ. eigenvalues --   -7.19478  -7.19469  -0.87510  -0.80531  -0.75393
 Alpha  occ. eigenvalues --   -0.71152  -0.69409  -0.68393  -0.61317  -0.52246
 Alpha  occ. eigenvalues --   -0.48762  -0.46345  -0.45400  -0.44443  -0.43458
 Alpha  occ. eigenvalues --   -0.41136  -0.39582  -0.38867  -0.38042  -0.37625
 Alpha  occ. eigenvalues --   -0.36459  -0.36452  -0.33599  -0.32880  -0.32794
 Alpha  occ. eigenvalues --   -0.28963  -0.28813
 Alpha virt. eigenvalues --   -0.00057   0.00911   0.01739   0.01948   0.02678
 Alpha virt. eigenvalues --    0.04370   0.04621   0.05346   0.05531   0.05706
 Alpha virt. eigenvalues --    0.07316   0.07495   0.07545   0.07784   0.09491

 Mulliken atomic charges:
              1
     1  C    0.151917
     2  C    0.019446
     3  C   -0.483965
     4  C   -0.483966
     5  Cl  -0.060072
     6  H    0.164851
     7  H    0.162530
     8  H    0.152212
     9  H    0.164852
    10  H    0.152214
    11  H    0.162527
    12  C   -0.480505
    13  C   -0.501754
    14  C   -0.480507
    15  H    0.144548
    16  H    0.171202
    17  H    0.140993
    18  H    0.153274
    19  H    0.146730
    20  H    0.146728
    21  H    0.144548
    22  H    0.140995
    23  H    0.171202
 Sum of Mulliken atomic charges =   0.00000

 Dipole moment (field-independent basis, Debye):
    X=             -1.6627    Y=              1.6379    Z=              0.0000  Tot=              2.3339
 Quadrupole moment (field-independent basis, Debye-Ang):
   XX=            -63.0893   YY=            -60.3801   ZZ=            -60.0624
   XY=              2.4157   XZ=              0.0000   YZ=              0.0000

 Normal termination of Gaussian 09 at Thu Jul  5 04:13:23 2018.
