 Gaussian 09, Revision C.01,
 Gaussian 09:  AM64L-G09RevC.01 23-Sep-2011

 ------------------------------------
 # opt=modredundant b3lyp/6-31+g(d,p)
 ------------------------------------

 99/9=1/99;
 -------------
 tBu-CMe2Cl-ts
 -------------
 Charge =  0 Multiplicity = 1

 SCF Done:  E(RB3LYP) =  -735.998154837     A.U. after   13 cycles
 SCF Done:  E(RB3LYP) =  -736.004777959     A.U. after   11 cycles
 SCF Done:  E(RB3LYP) =  -736.005140594     A.U. after   10 cycles
 SCF Done:  E(RB3LYP) =  -736.005170124     A.U. after   10 cycles
 SCF Done:  E(RB3LYP) =  -736.005235057     A.U. after   10 cycles
 SCF Done:  E(RB3LYP) =  -736.005243941     A.U. after    9 cycles
 SCF Done:  E(RB3LYP) =  -736.005246649     A.U. after    8 cycles
 SCF Done:  E(RB3LYP) =  -736.005246721     A.U. after    8 cycles
 Optimization completed.
    -- Stationary point found.

                         Standard orientation:
 ---------------------------------------------------------------------
 Center     Atomic      Atomic             Coordinates (Angstroms)
 Number     Number       Type             X           Y           Z
 ---------------------------------------------------------------------
      1          6           0       -1.003479    0.143026    0.000012
      2          6           0        0.503572   -0.441582   -0.000009
      3          6           0        0.862658   -1.263683    1.245885
      4          6           0        0.862628   -1.263723   -1.245882
      5         17           0        1.771275    0.951452   -0.000007
      6          1           0        1.902538   -1.592734    1.180537
      7          1           0        0.748245   -0.692769    2.168813
      8          1           0        0.229973   -2.155409    1.307069
      9          1           0        1.902509   -1.592775   -1.180546
     10          1           0        0.229942   -2.155451   -1.307019
     11          1           0        0.748191   -0.692844   -2.168828
     12          6           0       -1.792930   -0.334721   -1.244096
     13          6           0       -1.793027   -0.335017    1.243940
     14          6           0       -1.060230    1.687383    0.000166
     15          1           0       -2.809754    0.068510   -1.194230
     16          1           0       -1.349633    0.019061   -2.179019
     17          1           0       -1.879737   -1.424362   -1.294810
     18          1           0       -2.809861    0.068188    1.194064
     19          1           0       -1.879799   -1.424672    1.294398
     20          1           0       -1.349834    0.018568    2.178987
     21          1           0       -2.110068    2.001479    0.000178
     22          1           0       -0.579783    2.115131    0.883453
     23          1           0       -0.579759    2.115294   -0.883026
 ---------------------------------------------------------------------

 The electronic state is 1-A.
 Alpha  occ. eigenvalues -- -101.52166 -10.26731 -10.22083 -10.19016 -10.19015
 Alpha  occ. eigenvalues --  -10.18412 -10.18411 -10.17612  -9.43731  -7.20080
 Alpha  occ. eigenvalues --   -7.19180  -7.19171  -0.86619  -0.80361  -0.75240
 Alpha  occ. eigenvalues --   -0.71257  -0.68556  -0.68119  -0.60814  -0.52082
 Alpha  occ. eigenvalues --   -0.48924  -0.46723  -0.45331  -0.42744  -0.41778
 Alpha  occ. eigenvalues --   -0.41379  -0.41116  -0.39386  -0.37868  -0.37000
 Alpha  occ. eigenvalues --   -0.36204  -0.36192  -0.33164  -0.32900  -0.32469
 Alpha  occ. eigenvalues --   -0.28646  -0.28597
 Alpha virt. eigenvalues --   -0.00243   0.00086   0.01680   0.01895   0.02792
 Alpha virt. eigenvalues --    0.04298   0.04425   0.05290   0.05314   0.05804
 Alpha virt. eigenvalues --    0.06825   0.07687   0.08207   0.08981   0.09443

 Mulliken atomic charges:
              1
     1  C    0.368071
     2  C   -0.007139
     3  C   -0.496352
     4  C   -0.496309
     5  Cl  -0.061203
     6  H    0.163351
     7  H    0.162221
     8  H    0.152198
     9  H    0.163351
    10  H    0.152201
    11  H    0.162218
    12  C   -0.524145
    13  C   -0.524141
    14  C   -0.573111
    15  H    0.147916
    16  H    0.150278
    17  H    0.144619
    18  H    0.147917
    19  H    0.144620
    20  H    0.150278
    21  H    0.139256
    22  H    0.166950
    23  H    0.166956
 Sum of Mulliken atomic charges =   0.00000

 Dipole moment (field-independent basis, Debye):
    X=             -1.7576    Y=             -1.6780    Z=              0.0000  Tot=              2.4300
 Quadrupole moment (field-independent basis, Debye-Ang):
   XX=            -63.6636   YY=            -60.6611   ZZ=            -60.0329
   XY=             -2.5786   XZ=              0.0000   YZ=              0.0001

 1\1\GINC-XT21\FOpt\RB3LYP\6-31+G(d,p)\C7H15Cl1\GIANNIS\05-Jul-2018\0\\
 # opt=modredundant b3lyp/6-31+g(d,p)\\tBu-CMe2Cl-ts\\0,1\C,0.003782779
 ,0.0065040866,-0.0288817542\C,0.0176818719,0.0314694805,1.5873337346\C
 ,1.4214124834,-0.0052257266,2.2080099533\C,-0.7586747548,1.2014725072,
 2.2081384812\Cl,-0.8272881466,-1.4952570306,2.2963809914\H,1.340055047
 5,-0.0174026761,3.2975645064\H,1.9885295959,-0.8864222254,1.9035396871
 \H,1.9859619121,0.8884518677,1.9219490357\H,-0.725693975,1.1260125135,
 3.2976859869\H,-0.3011454186,2.154388567,1.9220838154\H,-1.8065403181,

 Normal termination of Gaussian 09 at Thu Jul  5 17:22:00 2018.
