 Gaussian 09, Revision A.01,
 Gaussian 09:  EM64L-G09RevA.01  8-May-2009

 -------------
 # mp2/cc-pVTZ
 -------------

 ----------------------------
 1_3_butadiene_t_single_point
 ----------------------------
 Symbolic Z-matrix:
 Charge =  0 Multiplicity = 1

                         Standard orientation:
 ---------------------------------------------------------------------
 Center     Atomic      Atomic             Coordinates (Angstroms)
 Number     Number       Type             X           Y           Z
 ---------------------------------------------------------------------
      1          6           0        1.109262   -1.486759    0.000000
      2          6           0       -0.000007   -0.729208    0.000000
      3          6           0        0.000000    0.729196    0.000000
      4          6           0       -1.109256    1.486766    0.000000
      5          1           0        1.057988   -2.570701    0.000000
      6          1           0        2.100988   -1.040504    0.000000
      7          1           0       -0.977149   -1.212815    0.000000
      8          1           0        0.977130    1.212818    0.000000
      9          1           0       -1.057962    2.570707    0.000000
     10          1           0       -2.100991    1.040527    0.000000
 ---------------------------------------------------------------------

 SCF Done:  E(RHF) =  -154.976681463     A.U. after   11 cycles
 E2 =    -0.6509702931D+00 EUMP2 =    -0.15562765175586D+03

 The electronic state is 1-A'.
 Alpha  occ. eigenvalues --  -11.24082 -11.23999 -11.23031 -11.23030  -1.08915
 Alpha  occ. eigenvalues --   -0.99782  -0.82664  -0.75268  -0.64292  -0.63321
 Alpha  occ. eigenvalues --   -0.55698  -0.54355  -0.49318  -0.44266  -0.32259
 Alpha virt. eigenvalues --    0.10925   0.15858   0.16378   0.17082   0.21358
 Alpha virt. eigenvalues --    0.21396   0.22397   0.24657   0.31021   0.35467
 Alpha virt. eigenvalues --    0.42570   0.43330   0.45582   0.46515   0.47334

 Mulliken atomic charges:
              1
     1  C   -0.335268
     2  C   -0.087742
     3  C   -0.087744
     4  C   -0.335268
     5  H    0.140719
     6  H    0.134002
     7  H    0.148291
     8  H    0.148291
     9  H    0.140719
    10  H    0.134000
 Sum of Mulliken atomic charges =   0.00000

 Dipole moment (field-independent basis, Debye):
    X=              0.0000    Y=              0.0000    Z=              0.0000  Tot=              0.0000
 Quadrupole moment (field-independent basis, Debye-Ang):
   XX=            -22.7926   YY=            -23.2653   ZZ=            -29.5074
   XY=             -0.0073   XZ=              0.0000   YZ=              0.0000

 Normal termination of Gaussian 09 at Fri Mar 25 19:37:46 2016.
