 Gaussian 09, Revision A.01,
 Gaussian 09:  EM64L-G09RevA.01  8-May-2009

 -------------
 # mp2/cc-pVTZ
 -------------

 ------------------------------
 1_3_butadiene_cis_single_point
 ------------------------------
 Symbolic Z-matrix:
 Charge =  0 Multiplicity = 1

                         Standard orientation:
 ---------------------------------------------------------------------
 Center     Atomic      Atomic             Coordinates (Angstroms)
 Number     Number       Type             X           Y           Z
 ---------------------------------------------------------------------
      1          6           0       -1.550362   -0.504064   -0.000025
      2          6           0       -0.736221    0.563448    0.000035
      3          6           0        0.736224    0.563447   -0.000039
      4          6           0        1.550361   -0.504064    0.000024
      5          1           0       -1.194361    1.551513    0.000135
      6          1           0        1.194367    1.551513   -0.000124
      7          1           0       -1.176339   -1.524422   -0.000156
      8          1           0       -2.628954   -0.383384    0.000041
      9          1           0        1.176317   -1.524417    0.000158
     10          1           0        2.628955   -0.383405   -0.000026
 ---------------------------------------------------------------------

 SCF Done:  E(RHF) =  -154.969838705     A.U. after   11 cycles
 E2 =    -0.6518504817D+00 EUMP2 =    -0.15562168918689D+03

 The electronic state is 1-A.
 Alpha  occ. eigenvalues --  -11.23987 -11.23910 -11.22957 -11.22957  -1.08525
 Alpha  occ. eigenvalues --   -0.99195  -0.84430  -0.72618  -0.66714  -0.61103
 Alpha  occ. eigenvalues --   -0.58255  -0.51508  -0.49807  -0.43907  -0.32215
 Alpha virt. eigenvalues --    0.09682   0.15313   0.16531   0.17792   0.21538
 Alpha virt. eigenvalues --    0.22140   0.23993   0.26083   0.34131   0.36118
 Alpha virt. eigenvalues --    0.40934   0.43476   0.45548   0.47094   0.48884

 Mulliken atomic charges:
              1
     1  C   -0.313755
     2  C   -0.109223
     3  C   -0.109221
     4  C   -0.313754
     5  H    0.148814
     6  H    0.148812
     7  H    0.130256
     8  H    0.143908
     9  H    0.130253
    10  H    0.143910
 Sum of Mulliken atomic charges =   0.00000

 Dipole moment (field-independent basis, Debye):
    X=              0.0000    Y=              0.0397    Z=              0.0000  Tot=              0.0397
 Quadrupole moment (field-independent basis, Debye-Ang):
   XX=            -23.2978   YY=            -22.5707   ZZ=            -29.4468
   XY=              0.0000   XZ=             -0.0002   YZ=              0.0000

 Normal termination of Gaussian 09 at Fri Mar 25 19:36:15 2016.
