 Gaussian 09, Revision A.01,
 Gaussian 09:  EM64L-G09RevA.01  8-May-2009

 -------------
 # mp2/cc-pVTZ
 -------------

 -------------------------------
 2_methylpropenal_t_single_point
 -------------------------------
 Symbolic Z-matrix:
 Charge =  0 Multiplicity = 1

                         Standard orientation:
 ---------------------------------------------------------------------
 Center     Atomic      Atomic             Coordinates (Angstroms)
 Number     Number       Type             X           Y           Z
 ---------------------------------------------------------------------
      1          6           0        0.728704    1.616270    0.000000
      2          6           0        0.000000    0.486354    0.000000
      3          6           0       -1.508575    0.433140    0.000000
      4          6           0        0.751791   -0.794722    0.000000
      5          8           0        0.238828   -1.900023    0.000000
      6          1           0        0.271025    2.601612    0.000000
      7          1           0        1.815714    1.581032    0.000000
      8          1           0        1.857138   -0.686356    0.000000
      9          1           0       -1.847531   -0.604958    0.000000
     10          1           0       -1.919245    0.931304    0.884282
     11          1           0       -1.919245    0.931304   -0.884282
 ---------------------------------------------------------------------

 SCF Done:  E(RHF) =  -229.882562482     A.U. after   13 cycles
 E2 =    -0.8863268139D+00 EUMP2 =    -0.23076888929611D+03

 The electronic state is 1-A'.
 Alpha  occ. eigenvalues --  -20.55479 -11.33355 -11.26133 -11.25868 -11.22921
 Alpha  occ. eigenvalues --   -1.38571  -1.10324  -0.95496  -0.87523  -0.74472
 Alpha  occ. eigenvalues --   -0.67459  -0.65541  -0.59105  -0.58496  -0.54133
 Alpha  occ. eigenvalues --   -0.53450  -0.52781  -0.42721  -0.38054
 Alpha virt. eigenvalues --    0.08173   0.14046   0.16246   0.18540   0.19211
 Alpha virt. eigenvalues --    0.21815   0.24242   0.24495   0.28846   0.30274
 Alpha virt. eigenvalues --    0.35951   0.38764   0.41528   0.45004   0.46126

 Mulliken atomic charges:
              1
     1  C   -0.301531
     2  C    0.023859
     3  C   -0.282904
     4  C    0.188822
     5  O   -0.361942
     6  H    0.152353
     7  H    0.147743
     8  H    0.091314
     9  H    0.131730
    10  H    0.105278
    11  H    0.105278
 Sum of Mulliken atomic charges =   0.00000

 Dipole moment (field-independent basis, Debye):
    X=              0.6329    Y=              3.3543    Z=              0.0000  Tot=              3.4135
 Quadrupole moment (field-independent basis, Debye-Ang):
   XX=            -27.1465   YY=            -35.2807   ZZ=            -31.5605
   XY=              0.2687   XZ=              0.0000   YZ=              0.0000

 Normal termination of Gaussian 09 at Fri Mar 25 19:55:20 2016.
