 Gaussian 09, Revision A.01,
 Gaussian 09:  EM64L-G09RevA.01  8-May-2009

 -------------
 # mp2/cc-pVTZ
 -------------

 ---------------------------------------
 2_methylpropenoic_acid_cis_single_point
 ---------------------------------------
 Symbolic Z-matrix:
 Charge =  0 Multiplicity = 1

                         Standard orientation:
 ---------------------------------------------------------------------
 Center     Atomic      Atomic             Coordinates (Angstroms)
 Number     Number       Type             X           Y           Z
 ---------------------------------------------------------------------
      1          6           0       -1.289901    1.361347   -0.000033
      2          6           0       -0.718305    0.148277    0.000000
      3          6           0       -1.489062   -1.147337    0.000033
      4          6           0        0.777051    0.099839    0.000004
      5          8           0        1.250908   -1.175709   -0.000049
      6          8           0        1.524839    1.058918    0.000049
      7          1           0       -2.369770    1.473270   -0.000055
      8          1           0       -0.681593    2.259602   -0.000072
      9          1           0       -1.244866   -1.754023   -0.878402
     10          1           0       -1.244830   -1.754000    0.878474
     11          1           0       -2.564344   -0.951609    0.000061
     12          1           0        2.220728   -1.111672   -0.000026
 ---------------------------------------------------------------------

 SCF Done:  E(RHF) =  -304.806053160     A.U. after   14 cycles
 E2 =    -0.1120417617D+01 EUMP2 =    -0.30592647077695D+03

 The electronic state is 1-A.
 Alpha  occ. eigenvalues --  -20.61142 -20.54261 -11.38837 -11.26066 -11.25149
 Alpha  occ. eigenvalues --  -11.23417  -1.45876  -1.35305  -1.10087  -0.95062
 Alpha  occ. eigenvalues --   -0.89201  -0.75535  -0.70170  -0.68128  -0.63295
 Alpha  occ. eigenvalues --   -0.60816  -0.59581  -0.57099  -0.55360  -0.52560
 Alpha  occ. eigenvalues --   -0.48643  -0.45039  -0.37855
 Alpha virt. eigenvalues --    0.09505   0.14214   0.15701   0.18431   0.20146
 Alpha virt. eigenvalues --    0.21152   0.23725   0.27381   0.28264   0.34686
 Alpha virt. eigenvalues --    0.37588   0.37774   0.39566   0.42222   0.44350

 Mulliken atomic charges:
              1
     1  C   -0.278337
     2  C   -0.044400
     3  C   -0.244313
     4  C    0.440661
     5  O   -0.336734
     6  O   -0.416358
     7  H    0.151615
     8  H    0.173526
     9  H    0.105624
    10  H    0.105622
    11  H    0.094566
    12  H    0.248528
 Sum of Mulliken atomic charges =   0.00000

 Dipole moment (field-independent basis, Debye):
    X=             -1.5495    Y=             -1.3303    Z=             -0.0001  Tot=              2.0422
 Quadrupole moment (field-independent basis, Debye-Ang):
   XX=            -31.9000   YY=            -36.9076   ZZ=            -36.6791
   XY=             -5.6742   XZ=             -0.0001   YZ=             -0.0004

 Normal termination of Gaussian 09 at Fri Mar 25 19:58:20 2016.
