 Gaussian 09, Revision A.01,
 Gaussian 09:  EM64L-G09RevA.01  8-May-2009

 -------------
 # mp2/cc-pVTZ
 -------------

 -------------------------------------
 2_methylpropenoic_acid_t_single_point
 -------------------------------------
 Symbolic Z-matrix:
 Charge =  0 Multiplicity = 1

                         Standard orientation:
 ---------------------------------------------------------------------
 Center     Atomic      Atomic             Coordinates (Angstroms)
 Number     Number       Type             X           Y           Z
 ---------------------------------------------------------------------
      1          6           0        1.043850    1.499106   -0.000125
      2          6           0        0.698650    0.202692    0.000006
      3          6           0        1.686007   -0.934630    0.000127
      4          6           0       -0.736619   -0.203546   -0.000054
      5          8           0       -1.613646    0.835098    0.000182
      6          8           0       -1.115832   -1.360511   -0.000172
      7          1           0        2.088720    1.796126   -0.000163
      8          1           0        0.298886    2.286369   -0.000261
      9          1           0        1.544477   -1.574638    0.877299
     10          1           0        1.544523   -1.574808   -0.876927
     11          1           0        2.710831   -0.555767    0.000111
     12          1           0       -2.502938    0.444288    0.000148
 ---------------------------------------------------------------------

 SCF Done:  E(RHF) =  -304.807333140     A.U. after   13 cycles
 E2 =    -0.1119920991D+01 EUMP2 =    -0.30592725413087D+03

 The electronic state is 1-A.
 Alpha  occ. eigenvalues --  -20.60973 -20.54720 -11.38842 -11.26249 -11.25376
 Alpha  occ. eigenvalues --  -11.22957  -1.45911  -1.35475  -1.10170  -0.95006
 Alpha  occ. eigenvalues --   -0.88733  -0.76113  -0.70444  -0.68403  -0.63231
 Alpha  occ. eigenvalues --   -0.61437  -0.59403  -0.56995  -0.53881  -0.53218
 Alpha  occ. eigenvalues --   -0.48229  -0.45399  -0.38244
 Alpha virt. eigenvalues --    0.09439   0.14725   0.15451   0.18170   0.19928
 Alpha virt. eigenvalues --    0.21878   0.23779   0.27118   0.28744   0.35030
 Alpha virt. eigenvalues --    0.36386   0.37967   0.40902   0.42057   0.43931

 Mulliken atomic charges:
              1
     1  C   -0.289110
     2  C   -0.031552
     3  C   -0.235397
     4  C    0.432930
     5  O   -0.340956
     6  O   -0.410344
     7  H    0.148422
     8  H    0.165742
     9  H    0.106681
    10  H    0.106689
    11  H    0.093565
    12  H    0.253330
 Sum of Mulliken atomic charges =   0.00000

 Dipole moment (field-independent basis, Debye):
    X=              0.8887    Y=              1.9346    Z=              0.0001  Tot=              2.1290
 Quadrupole moment (field-independent basis, Debye-Ang):
   XX=            -29.5516   YY=            -38.8432   ZZ=            -36.6992
   XY=             -1.7959   XZ=             -0.0004   YZ=             -0.0014

 Normal termination of Gaussian 09 at Fri Mar 25 20:01:13 2016.
