 Gaussian 09, Revision A.01,
 Gaussian 09:  EM64L-G09RevA.01  8-May-2009

 -------------
 # mp2/cc-pVTZ
 -------------

 ---------------------------------
 2_methylpropenal_cis_single_point
 ---------------------------------
 Symbolic Z-matrix:
 Charge =  0 Multiplicity = 1

                         Standard orientation:
 ---------------------------------------------------------------------
 Center     Atomic      Atomic             Coordinates (Angstroms)
 Number     Number       Type             X           Y           Z
 ---------------------------------------------------------------------
      1          6           0        0.392347    1.464558   -0.000053
      2          6           0        0.422896    0.122742   -0.000167
      3          6           0        1.684031   -0.703804    0.000214
      4          6           0       -0.867204   -0.631683   -0.000847
      5          8           0       -1.976574   -0.129578    0.000494
      6          1           0        1.302535    2.057252    0.000254
      7          1           0       -0.558274    1.989281   -0.000287
      8          1           0       -0.761297   -1.738617    0.000295
      9          1           0        1.730919   -1.355939    0.881374
     10          1           0        1.731610   -1.355665   -0.881112
     11          1           0        2.574676   -0.070569    0.000650
 ---------------------------------------------------------------------

 SCF Done:  E(RHF) =  -229.879439287     A.U. after   13 cycles
 E2 =    -0.8859572259D+00 EUMP2 =    -0.23076539651325D+03

 The electronic state is 1-A.
 Alpha  occ. eigenvalues --  -20.55401 -11.33399 -11.25522 -11.25016 -11.24159
 Alpha  occ. eigenvalues --   -1.38466  -1.09895  -0.95482  -0.88126  -0.73762
 Alpha  occ. eigenvalues --   -0.67335  -0.64901  -0.59103  -0.59102  -0.55659
 Alpha  occ. eigenvalues --   -0.52920  -0.52829  -0.42529  -0.37441
 Alpha virt. eigenvalues --    0.07950   0.13442   0.17119   0.18491   0.19333
 Alpha virt. eigenvalues --    0.20030   0.23841   0.26226   0.28445   0.30567
 Alpha virt. eigenvalues --    0.36863   0.37378   0.42090   0.44822   0.45170

 Mulliken atomic charges:
              1
     1  C   -0.286904
     2  C   -0.007615
     3  C   -0.261634
     4  C    0.192915
     5  O   -0.356048
     6  H    0.151629
     7  H    0.170991
     8  H    0.094277
     9  H    0.099045
    10  H    0.099043
    11  H    0.104300
 Sum of Mulliken atomic charges =   0.00000

 Dipole moment (field-independent basis, Debye):
    X=              3.2830    Y=             -0.4898    Z=             -0.0017  Tot=              3.3193
 Quadrupole moment (field-independent basis, Debye-Ang):
   XX=            -36.3947   YY=            -26.6343   ZZ=            -31.5561
   XY=              0.5220   XZ=              0.0038   YZ=              0.0005

 Normal termination of Gaussian 09 at Fri Mar 25 19:49:24 2016.
