 Gaussian 09, Revision A.01,
 Gaussian 09:  EM64L-G09RevA.01  8-May-2009

 -------------
 # mp2/cc-pVTZ
 -------------

 ---------------------------------------
 2_methyl_1_3_butadiene_cis_single_point
 ---------------------------------------
 Symbolic Z-matrix:
 Charge =  0 Multiplicity = 1

                         Standard orientation:
 ---------------------------------------------------------------------
 Center     Atomic      Atomic             Coordinates (Angstroms)
 Number     Number       Type             X           Y           Z
 ---------------------------------------------------------------------
      1          6           0       -0.543859    1.444306    0.000000
      2          6           0       -0.449584    0.102586   -0.000014
      3          6           0       -1.707394   -0.754670    0.000004
      4          6           0        0.841849   -0.622807   -0.000003
      5          6           0        2.079571   -0.103730    0.000004
      6          1           0       -1.510502    1.940043   -0.000025
      7          1           0        0.329669    2.088614    0.000039
      8          1           0        0.755466   -1.708835    0.000000
      9          1           0        2.951381   -0.750102   -0.000004
     10          1           0        2.268492    0.966189    0.000000
     11          1           0       -1.470454   -1.822359   -0.000809
     12          1           0       -2.323371   -0.554411    0.883327
     13          1           0       -2.324188   -0.553249   -0.882478
 ---------------------------------------------------------------------

 SCF Done:  E(RHF) =  -194.016508491     A.U. after   11 cycles
 E2 =    -0.8290149699D+00 EUMP2 =    -0.19484552346042D+03

 The electronic state is 1-A.
 Alpha  occ. eigenvalues --  -11.24497 -11.23708 -11.22796 -11.22292 -11.21722
 Alpha  occ. eigenvalues --   -1.09977  -1.00584  -0.93025  -0.82532  -0.70888
 Alpha  occ. eigenvalues --   -0.64777  -0.62245  -0.57097  -0.57013  -0.53093
 Alpha  occ. eigenvalues --   -0.50714  -0.48632  -0.42324  -0.31386
 Alpha virt. eigenvalues --    0.09684   0.14581   0.16889   0.17370   0.20541
 Alpha virt. eigenvalues --    0.21045   0.21462   0.25432   0.26175   0.26287
 Alpha virt. eigenvalues --    0.30145   0.32913   0.38668   0.38719   0.44070

 Mulliken atomic charges:
              1
     1  C   -0.345380
     2  C    0.071456
     3  C   -0.279178
     4  C   -0.130679
     5  C   -0.310760
     6  H    0.136071
     7  H    0.129939
     8  H    0.144517
     9  H    0.143717
    10  H    0.132104
    11  H    0.091374
    12  H    0.108409
    13  H    0.108410
 Sum of Mulliken atomic charges =   0.00000

 Dipole moment (field-independent basis, Debye):
    X=             -0.1943    Y=             -0.2738    Z=              0.0001  Tot=              0.3357
 Quadrupole moment (field-independent basis, Debye-Ang):
   XX=            -29.6512   YY=            -30.0033   ZZ=            -35.6806
   XY=              0.3414   XZ=              0.0000   YZ=              0.0001

 Normal termination of Gaussian 09 at Fri Mar 25 19:42:03 2016.
