 Gaussian 09, Revision A.01,
 Gaussian 09:  EM64L-G09RevA.01  8-May-2009

 -------------
 # mp2/cc-pVTZ
 -------------

 --------------------------------
 2_methylpropenal_t1_single_point
 --------------------------------
 Symbolic Z-matrix:
 Charge =  0 Multiplicity = 1

                         Standard orientation:
 ---------------------------------------------------------------------
 Center     Atomic      Atomic             Coordinates (Angstroms)
 Number     Number       Type             X           Y           Z
 ---------------------------------------------------------------------
      1          6           0       -1.502246   -0.953058   -0.000172
      2          6           0       -0.483818   -0.075725    0.000104
      3          6           0       -0.633780    1.419958    0.000018
      4          6           0        0.892973   -0.629261    0.000708
      5          8           0        1.904582    0.050089   -0.000358
      6          1           0       -2.540316   -0.633618   -0.000357
      7          1           0       -1.318720   -2.024982   -0.000137
      8          1           0        0.955861   -1.738609   -0.000629
      9          1           0       -0.142430    1.855685   -0.876504
     10          1           0       -1.686455    1.713661   -0.000531
     11          1           0       -0.143368    1.855674    0.877071
 ---------------------------------------------------------------------

 SCF Done:  E(RHF) =  -229.885362782     A.U. after   13 cycles
 E2 =    -0.8856511863D+00 EUMP2 =    -0.23077101396856D+03

 The electronic state is 1-A.
 Alpha  occ. eigenvalues --  -20.55536 -11.33329 -11.26138 -11.25882 -11.23170
 Alpha  occ. eigenvalues --   -1.38596  -1.10436  -0.95583  -0.87612  -0.74515
 Alpha  occ. eigenvalues --   -0.67426  -0.65577  -0.59066  -0.58539  -0.54890
 Alpha  occ. eigenvalues --   -0.53605  -0.52341  -0.42704  -0.38247
 Alpha virt. eigenvalues --    0.08504   0.14224   0.16250   0.17974   0.19972
 Alpha virt. eigenvalues --    0.20984   0.23886   0.24276   0.28693   0.31107
 Alpha virt. eigenvalues --    0.37619   0.38556   0.41894   0.44344   0.44907

 Mulliken atomic charges:
              1
     1  C   -0.307695
     2  C    0.027307
     3  C   -0.241626
     4  C    0.176575
     5  O   -0.357630
     6  H    0.152945
     7  H    0.146630
     8  H    0.092615
     9  H    0.107962
    10  H    0.095014
    11  H    0.107904
 Sum of Mulliken atomic charges =   0.00000

 Dipole moment (field-independent basis, Debye):
    X=             -3.1621    Y=             -1.1271    Z=              0.0013  Tot=              3.3570
 Quadrupole moment (field-independent basis, Debye-Ang):
   XX=            -35.2004   YY=            -27.1972   ZZ=            -31.5823
   XY=             -0.9649   XZ=              0.0026   YZ=              0.0002

 Normal termination of Gaussian 09 at Fri Mar 25 19:52:23 2016.
