 Gaussian 09, Revision A.01,
 Gaussian 09:  EM64L-G09RevA.01  8-May-2009

 -------------
 # mp2/cc-pVTZ
 -------------

 -------------------------------------
 2_methyl_1_3_butadiene_t_single_point
 -------------------------------------
 Symbolic Z-matrix:
 Charge =  0 Multiplicity = 1

                         Standard orientation:
 ---------------------------------------------------------------------
 Center     Atomic      Atomic             Coordinates (Angstroms)
 Number     Number       Type             X           Y           Z
 ---------------------------------------------------------------------
      1          6           0       -1.590622   -0.912547   -0.000003
      2          6           0       -0.516502   -0.099518   -0.000007
      3          6           0       -0.662178    1.403481    0.000000
      4          6           0        0.834039   -0.678557    0.000003
      5          6           0        1.989710    0.005776    0.000000
      6          1           0       -2.603418   -0.520928    0.000005
      7          1           0       -1.482081   -1.993882    0.000024
      8          1           0        0.872960   -1.767498   -0.000003
      9          1           0        2.944484   -0.510403   -0.000007
     10          1           0        2.024237    1.091164    0.000006
     11          1           0       -0.183932    1.846573    0.881796
     12          1           0       -0.183930    1.846581   -0.881787
     13          1           0       -1.715002    1.696583    0.000009
 ---------------------------------------------------------------------

 SCF Done:  E(RHF) =  -194.027039416     A.U. after   12 cycles
 E2 =    -0.8283575496D+00 EUMP2 =    -0.19485539696518D+03

 The electronic state is 1-A.
 Alpha  occ. eigenvalues --  -11.24585 -11.23760 -11.22717 -11.22337 -11.22302
 Alpha  occ. eigenvalues --   -1.10530  -1.00589  -0.93683  -0.81891  -0.71464
 Alpha  occ. eigenvalues --   -0.64765  -0.62836  -0.57161  -0.55724  -0.54163
 Alpha  occ. eigenvalues --   -0.52094  -0.48140  -0.42217  -0.31963
 Alpha virt. eigenvalues --    0.11115   0.14763   0.16663   0.17479   0.19881
 Alpha virt. eigenvalues --    0.21624   0.21672   0.23645   0.24759   0.25554
 Alpha virt. eigenvalues --    0.29650   0.33797   0.36684   0.38824   0.43864

 Mulliken atomic charges:
              1
     1  C   -0.364825
     2  C    0.106100
     3  C   -0.286895
     4  C   -0.103855
     5  C   -0.349731
     6  H    0.134556
     7  H    0.130910
     8  H    0.146246
     9  H    0.144986
    10  H    0.139352
    11  H    0.099460
    12  H    0.099462
    13  H    0.104234
 Sum of Mulliken atomic charges =   0.00000

 Dipole moment (field-independent basis, Debye):
    X=             -0.0168    Y=              0.2501    Z=              0.0000  Tot=              0.2506
 Quadrupole moment (field-independent basis, Debye-Ang):
   XX=            -30.1974   YY=            -29.8128   ZZ=            -35.8139
   XY=             -0.0361   XZ=             -0.0001   YZ=              0.0000

 Normal termination of Gaussian 09 at Fri Mar 25 19:46:27 2016.
