 Gaussian 09, Revision A.01,
 Gaussian 09:  EM64L-G09RevA.01  8-May-2009

 -------------
 # mp2/cc-pVTZ
 -------------

 -----------------------
 acrolein_t_single_point
 -----------------------
 Symbolic Z-matrix:
 Charge =  0 Multiplicity = 1

                         Standard orientation:
 ---------------------------------------------------------------------
 Center     Atomic      Atomic             Coordinates (Angstroms)
 Number     Number       Type             X           Y           Z
 ---------------------------------------------------------------------
      1          6           0        1.766611    0.140578    0.000052
      2          6           0        0.562270   -0.448020   -0.000075
      3          6           0       -0.676106    0.352349   -0.000193
      4          8           0       -1.797840   -0.123457    0.000129
      5          1           0       -0.527390    1.454194    0.000008
      6          1           0        0.442802   -1.528799   -0.000098
      7          1           0        2.688849   -0.431786    0.000188
      8          1           0        1.861809    1.224600    0.000170
 ---------------------------------------------------------------------

 SCF Done:  E(RHF) =  -190.831967382     A.U. after   13 cycles
 E2 =    -0.7090414269D+00 EUMP2 =    -0.19154100880924D+03

 The electronic state is 1-A.
 Alpha  occ. eigenvalues --  -20.55620 -11.33649 -11.27203 -11.25800  -1.38626
 Alpha  occ. eigenvalues --   -1.08658  -0.88666  -0.78595  -0.67067  -0.66525
 Alpha  occ. eigenvalues --   -0.60358  -0.55836  -0.53963  -0.43133  -0.39948
 Alpha virt. eigenvalues --    0.07808   0.14568   0.15911   0.19709   0.20425
 Alpha virt. eigenvalues --    0.21856   0.29049   0.34819   0.38986   0.41995
 Alpha virt. eigenvalues --    0.43716   0.47697   0.48101   0.51344   0.54810

 Mulliken atomic charges:
              1
     1  C   -0.278437
     2  C   -0.143674
     3  C    0.214711
     4  O   -0.359710
     5  H    0.078190
     6  H    0.180733
     7  H    0.159231
     8  H    0.148957
 Sum of Mulliken atomic charges =   0.00000

 Dipole moment (field-independent basis, Debye):
    X=              3.6572    Y=              0.8966    Z=             -0.0003  Tot=              3.7655
 Quadrupole moment (field-independent basis, Debye-Ang):
   XX=            -27.4812   YY=            -21.4310   ZZ=            -25.3220
   XY=             -0.8828   XZ=              0.0013   YZ=              0.0002

 Normal termination of Gaussian 09 at Fri Mar 25 20:03:16 2016.
