 Gaussian 09, Revision A.01,
 Gaussian 09:  EM64L-G09RevA.01  8-May-2009

 -------------
 # mp2/cc-pVTZ
 -------------

 -------------------------
 acrolein_cis_single_point
 -------------------------
 Symbolic Z-matrix:
 Charge =  0 Multiplicity = 1

                         Standard orientation:
 ---------------------------------------------------------------------
 Center     Atomic      Atomic             Coordinates (Angstroms)
 Number     Number       Type             X           Y           Z
 ---------------------------------------------------------------------
      1          6           0        1.478450   -0.466776    0.000003
      2          6           0        0.665729    0.598991    0.000076
      3          6           0       -0.812980    0.464131   -0.000716
      4          8           0       -1.412022   -0.597263    0.000298
      5          1           0       -1.376700    1.420256    0.001025
      6          1           0        1.061687    1.612532    0.000623
      7          1           0        2.558794   -0.361056    0.000343
      8          1           0        1.065195   -1.471701   -0.000553
 ---------------------------------------------------------------------

 SCF Done:  E(RHF) =  -190.828349643     A.U. after   13 cycles
 E2 =    -0.7094862901D+00 EUMP2 =    -0.19153783593276D+03

 The electronic state is 1-A.
 Alpha  occ. eigenvalues --  -20.55403 -11.33616 -11.26517 -11.25151  -1.38467
 Alpha  occ. eigenvalues --   -1.07407  -0.89720  -0.75518  -0.70010  -0.64059
 Alpha  occ. eigenvalues --   -0.60530  -0.54758  -0.53787  -0.42957  -0.39207
 Alpha virt. eigenvalues --    0.07075   0.14670   0.16640   0.19783   0.21645
 Alpha virt. eigenvalues --    0.22571   0.30991   0.33991   0.38519   0.42381
 Alpha virt. eigenvalues --    0.43062   0.48214   0.48435   0.50129   0.54771

 Mulliken atomic charges:
              1
     1  C   -0.240256
     2  C   -0.201077
     3  C    0.211575
     4  O   -0.360995
     5  H    0.093589
     6  H    0.166567
     7  H    0.157235
     8  H    0.173362
 Sum of Mulliken atomic charges =   0.00000

 Dipole moment (field-independent basis, Debye):
    X=              2.4412    Y=              1.9318    Z=             -0.0010  Tot=              3.1132
 Quadrupole moment (field-independent basis, Debye-Ang):
   XX=            -24.4622   YY=            -21.9989   ZZ=            -25.2961
   XY=             -3.7254   XZ=              0.0019   YZ=              0.0020

 Normal termination of Gaussian 09 at Fri Mar 25 20:02:15 2016.
