 Gaussian 09, Revision A.01,
 Gaussian 09:  EM64L-G09RevA.01  8-May-2009

 -------------
 # mp2/cc-pVTZ
 -------------

 --------------------------------
 but_1_ene_3_one_cis_single_point
 --------------------------------
 Symbolic Z-matrix:
 Charge =  0 Multiplicity = 1

                         Standard orientation:
 ---------------------------------------------------------------------
 Center     Atomic      Atomic             Coordinates (Angstroms)
 Number     Number       Type             X           Y           Z
 ---------------------------------------------------------------------
      1          6           0       -0.597121   -1.934024    0.000000
      2          6           0        0.345270   -0.983732    0.000000
      3          6           0        0.000000    0.472986    0.000000
      4          8           0       -1.159862    0.861540    0.000000
      5          6           0        1.164916    1.442289    0.000000
      6          1           0       -0.342956   -2.989442    0.000000
      7          1           0       -1.648679   -1.660234    0.000000
      8          1           0        1.401632   -1.246033    0.000000
      9          1           0        0.796761    2.468859    0.000000
     10          1           0        1.796875    1.274704    0.881009
     11          1           0        1.796875    1.274704   -0.881009
 ---------------------------------------------------------------------

 SCF Done:  E(RHF) =  -229.888014237     A.U. after   13 cycles
 E2 =    -0.8831375740D+00 EUMP2 =    -0.23077115181140D+03

 The electronic state is 1-A'.
 Alpha  occ. eigenvalues --  -20.53964 -11.33414 -11.25672 -11.24521 -11.23669
 Alpha  occ. eigenvalues --   -1.37597  -1.07166  -1.00592  -0.84992  -0.72699
 Alpha  occ. eigenvalues --   -0.67340  -0.64007  -0.59988  -0.59329  -0.55516
 Alpha  occ. eigenvalues --   -0.53531  -0.50351  -0.41705  -0.38655
 Alpha virt. eigenvalues --    0.08541   0.13696   0.16441   0.18977   0.19370
 Alpha virt. eigenvalues --    0.21508   0.22749   0.25980   0.28548   0.31515
 Alpha virt. eigenvalues --    0.36757   0.38350   0.39533   0.44159   0.44591

 Mulliken atomic charges:
              1
     1  C   -0.248408
     2  C   -0.223344
     3  C    0.326354
     4  O   -0.379145
     5  C   -0.293889
     6  H    0.153491
     7  H    0.174587
     8  H    0.160471
     9  H    0.129279
    10  H    0.100302
    11  H    0.100302
 Sum of Mulliken atomic charges =   0.00000

 Dipole moment (field-independent basis, Debye):
    X=              2.7158    Y=             -1.5358    Z=              0.0000  Tot=              3.1199
 Quadrupole moment (field-independent basis, Debye-Ang):
   XX=            -31.3198   YY=            -27.5465   ZZ=            -31.6082
   XY=              4.0239   XZ=              0.0000   YZ=              0.0000

 Normal termination of Gaussian 09 at Fri Mar 25 20:06:14 2016.
