 Gaussian 09, Revision A.01,
 Gaussian 09:  EM64L-G09RevA.01  8-May-2009

 -------------
 # mp2/cc-pVTZ
 -------------

 ------------------------------
 but_1_ene_3_one_t_single_point
 ------------------------------
 Symbolic Z-matrix:
 Charge =  0 Multiplicity = 1

                         Standard orientation:
 ---------------------------------------------------------------------
 Center     Atomic      Atomic             Coordinates (Angstroms)
 Number     Number       Type             X           Y           Z
 ---------------------------------------------------------------------
      1          6           0        1.945107    0.176537    0.000040
      2          6           0        0.878617   -0.634169   -0.000002
      3          6           0       -0.542475   -0.187456   -0.000624
      4          8           0       -1.433596   -1.027815    0.000184
      5          6           0       -0.865077    1.296018    0.000126
      6          1           0        2.955148   -0.222496    0.000350
      7          1           0        1.852740    1.258896   -0.000247
      8          1           0        0.997904   -1.715221    0.000350
      9          1           0       -1.948550    1.420848    0.000702
     10          1           0       -0.442311    1.787188    0.883680
     11          1           0       -0.443197    1.787721   -0.883543
 ---------------------------------------------------------------------

 SCF Done:  E(RHF) =  -229.888224845     A.U. after   13 cycles
 E2 =    -0.8835046674D+00 EUMP2 =    -0.23077172951263D+03

 The electronic state is 1-A.
 Alpha  occ. eigenvalues --  -20.54484 -11.33550 -11.26245 -11.25170 -11.23766
 Alpha  occ. eigenvalues --   -1.37926  -1.08200  -0.99722  -0.86225  -0.73290
 Alpha  occ. eigenvalues --   -0.66997  -0.65132  -0.60220  -0.59142  -0.56183
 Alpha  occ. eigenvalues --   -0.53715  -0.50454  -0.42090  -0.39339
 Alpha virt. eigenvalues --    0.08412   0.13807   0.16251   0.18704   0.20582
 Alpha virt. eigenvalues --    0.21389   0.23097   0.23101   0.28503   0.32364
 Alpha virt. eigenvalues --    0.36565   0.37491   0.39492   0.44018   0.45181

 Mulliken atomic charges:
              1
     1  C   -0.289629
     2  C   -0.172508
     3  C    0.323715
     4  O   -0.376049
     5  C   -0.316608
     6  H    0.160974
     7  H    0.149173
     8  H    0.180135
     9  H    0.135498
    10  H    0.102664
    11  H    0.102636
 Sum of Mulliken atomic charges =   0.00000

 Dipole moment (field-independent basis, Debye):
    X=              2.7721    Y=              2.4444    Z=             -0.0008  Tot=              3.6959
 Quadrupole moment (field-independent basis, Debye-Ang):
   XX=            -31.3054   YY=            -30.4600   ZZ=            -31.6216
   XY=             -3.7727   XZ=              0.0016   YZ=              0.0003

 Normal termination of Gaussian 09 at Fri Mar 25 20:09:15 2016.
