 Gaussian 09, Revision A.01,
 Gaussian 09:  EM64L-G09RevA.01  8-May-2009

 -------------
 # mp2/cc-pVTZ
 -------------

 -------------------------------
 propenoic_acid_cis_single_point
 -------------------------------
 Symbolic Z-matrix:
 Charge =  0 Multiplicity = 1

                         Standard orientation:
 ---------------------------------------------------------------------
 Center     Atomic      Atomic             Coordinates (Angstroms)
 Number     Number       Type             X           Y           Z
 ---------------------------------------------------------------------
      1          6           0       -1.975913    0.038637    0.000053
      2          6           0       -0.817163   -0.627929   -0.000022
      3          6           0        0.477920    0.095409   -0.000122
      4          8           0        1.527207   -0.768648    0.000034
      5          8           0        0.627789    1.301975    0.000024
      6          1           0       -2.927198   -0.483461    0.000013
      7          1           0       -1.988036    1.124731   -0.000041
      8          1           0        2.337885   -0.232143    0.000120
      9          1           0       -0.771679   -1.712450   -0.000012
 ---------------------------------------------------------------------

 SCF Done:  E(RHF) =  -265.756065340     A.U. after   14 cycles
 E2 =    -0.9431245923D+00 EUMP2 =    -0.26669918993271D+03

 The electronic state is 1-A.
 Alpha  occ. eigenvalues --  -20.61206 -20.54468 -11.39048 -11.26622 -11.25616
 Alpha  occ. eigenvalues --   -1.45915  -1.35493  -1.08044  -0.90556  -0.77184
 Alpha  occ. eigenvalues --   -0.71308  -0.69601  -0.62897  -0.62184  -0.59746
 Alpha  occ. eigenvalues --   -0.54887  -0.48796  -0.45590  -0.39933
 Alpha virt. eigenvalues --    0.08689   0.15341   0.15545   0.18804   0.21577
 Alpha virt. eigenvalues --    0.25310   0.31492   0.34448   0.37909   0.39713
 Alpha virt. eigenvalues --    0.42188   0.46329   0.48194   0.48502   0.54359

 Mulliken atomic charges:
              1
     1  C   -0.239890
     2  C   -0.216813
     3  C    0.443560
     4  O   -0.345477
     5  O   -0.412271
     6  H    0.158162
     7  H    0.175276
     8  H    0.253006
     9  H    0.184446
 Sum of Mulliken atomic charges =   0.00000

 Dipole moment (field-independent basis, Debye):
    X=             -0.9133    Y=             -1.6094    Z=             -0.0002  Tot=              1.8504
 Quadrupole moment (field-independent basis, Debye-Ang):
   XX=            -20.5336   YY=            -33.0720   ZZ=            -30.4224
   XY=             -0.1524   XZ=              0.0003   YZ=             -0.0001

 Normal termination of Gaussian 09 at Fri Mar 25 20:11:21 2016.
