 Gaussian 09, Revision A.01,
 Gaussian 09:  EM64L-G09RevA.01  8-May-2009

 -------------
 # mp2/cc-pVTZ
 -------------

 -----------------------------
 propenoic_acid_t_single_point
 -----------------------------
 Symbolic Z-matrix:
 Charge =  0 Multiplicity = 1

                         Standard orientation:
 ---------------------------------------------------------------------
 Center     Atomic      Atomic             Coordinates (Angstroms)
 Number     Number       Type             X           Y           Z
 ---------------------------------------------------------------------
      1          6           0       -0.298459   -1.910384    0.000000
      2          6           0       -0.809919   -0.674364    0.000000
      3          6           0        0.000000    0.564481    0.000000
      4          8           0        1.341634    0.347102    0.000000
      5          8           0       -0.474449    1.685064    0.000000
      6          1           0       -0.946319   -2.781634    0.000000
      7          1           0        0.773193   -2.080777    0.000000
      8          1           0        1.766135    1.220959    0.000000
      9          1           0       -1.880219   -0.494270    0.000000
 ---------------------------------------------------------------------

 SCF Done:  E(RHF) =  -265.755627645     A.U. after   14 cycles
 E2 =    -0.9429988795D+00 EUMP2 =    -0.26669862652447D+03

 The electronic state is 1-A'.
 Alpha  occ. eigenvalues --  -20.61179 -20.54753 -11.39076 -11.26785 -11.25848
 Alpha  occ. eigenvalues --   -1.46008  -1.35572  -1.08294  -0.89689  -0.79691
 Alpha  occ. eigenvalues --   -0.70590  -0.68459  -0.63918  -0.63010  -0.58957
 Alpha  occ. eigenvalues --   -0.55117  -0.48727  -0.45765  -0.40177
 Alpha virt. eigenvalues --    0.08680   0.14405   0.16310   0.18525   0.21602
 Alpha virt. eigenvalues --    0.25148   0.32025   0.32990   0.37923   0.41030
 Alpha virt. eigenvalues --    0.42032   0.45586   0.48253   0.48761   0.54948

 Mulliken atomic charges:
              1
     1  C   -0.250699
     2  C   -0.192310
     3  C    0.435615
     4  O   -0.342704
     5  O   -0.414694
     6  H    0.155728
     7  H    0.168528
     8  H    0.253638
     9  H    0.186898
 Sum of Mulliken atomic charges =   0.00000

 Dipole moment (field-independent basis, Debye):
    X=              0.9452    Y=             -2.4121    Z=              0.0000  Tot=              2.5907
 Quadrupole moment (field-independent basis, Debye-Ang):
   XX=            -26.2543   YY=            -28.9847   ZZ=            -30.4423
   XY=              5.4516   XZ=              0.0000   YZ=              0.0000

 Normal termination of Gaussian 09 at Fri Mar 25 20:13:28 2016.
