 Gaussian 09, Revision A.01,
 Gaussian 09:  EM64L-G09RevA.01  8-May-2009

 -----------------------
 # opt b3lyp/6-31+g(d,p)
 -----------------------

 ----------------------
 1,2-ethanediol-g-,g+,a
 ----------------------
 Symbolic Z-matrix:
 Charge =  0 Multiplicity = 1

 SCF Done:  E(RB3LYP) =  -230.271802262     A.U. after   11 cycles
 SCF Done:  E(RB3LYP) =  -230.276205814     A.U. after   10 cycles
 SCF Done:  E(RB3LYP) =  -230.276349662     A.U. after   10 cycles
 SCF Done:  E(RB3LYP) =  -230.276382972     A.U. after    8 cycles
 SCF Done:  E(RB3LYP) =  -230.276402871     A.U. after    9 cycles
 SCF Done:  E(RB3LYP) =  -230.276410759     A.U. after    9 cycles
 SCF Done:  E(RB3LYP) =  -230.276413159     A.U. after    8 cycles
 SCF Done:  E(RB3LYP) =  -230.276414819     A.U. after    8 cycles
 SCF Done:  E(RB3LYP) =  -230.276415422     A.U. after    7 cycles
 SCF Done:  E(RB3LYP) =  -230.276415543     A.U. after    7 cycles
 Optimization completed.
    -- Stationary point found.

                         Standard orientation:
 ---------------------------------------------------------------------
 Center     Atomic      Atomic             Coordinates (Angstroms)
 Number     Number       Type             X           Y           Z
 ---------------------------------------------------------------------
      1          6           0       -0.686716    0.603117   -0.269288
      2          6           0        0.731443    0.568765    0.274077
      3          8           0       -1.341150   -0.576424    0.216730
      4          8           0        1.450414   -0.565284   -0.192738
      5          1           0       -1.201108    1.509628    0.082351
      6          1           0       -0.661637    0.607064   -1.367393
      7          1           0        1.280343    1.452203   -0.066146
      8          1           0        0.697812    0.585743    1.373976
      9          1           0       -2.171183   -0.708275   -0.256710
     10          1           0        0.913301   -1.343987    0.013252
 ---------------------------------------------------------------------

 The electronic state is 1-A.
 Alpha  occ. eigenvalues --  -19.17422 -19.15424 -10.24648 -10.23842  -1.04431
 Alpha  occ. eigenvalues --   -1.01720  -0.74969  -0.62713  -0.54206  -0.50339
 Alpha  occ. eigenvalues --   -0.47068  -0.43047  -0.41443  -0.36568  -0.33857
 Alpha  occ. eigenvalues --   -0.29716  -0.27779
 Alpha virt. eigenvalues --   -0.00811   0.01972   0.02877   0.04065   0.05870
 Alpha virt. eigenvalues --    0.07115   0.08119   0.12162   0.14599   0.15519
 Alpha virt. eigenvalues --    0.17177   0.18001   0.19577   0.19950   0.22641

 Mulliken atomic charges:
              1
     1  C   -0.130443
     2  C   -0.025947
     3  O   -0.568866
     4  O   -0.520420
     5  H    0.126211
     6  H    0.137986
     7  H    0.137887
     8  H    0.134706
     9  H    0.351969
    10  H    0.356917
 Sum of Mulliken atomic charges =   0.00000

 Dipole moment (field-independent basis, Debye):
    X=             -2.3889    Y=              1.0558    Z=             -0.5170  Tot=              2.6625
 Quadrupole moment (field-independent basis, Debye-Ang):
   XX=            -26.1020   YY=            -23.0733   ZZ=            -26.0799
   XY=              1.3050   XZ=              3.5204   YZ=              0.3039

 Normal termination of Gaussian 09 at Wed Apr 27 01:13:45 2016.
