 Gaussian 09, Revision A.01,
 Gaussian 09:  EM64L-G09RevA.01  8-May-2009

 -----------------------
 # opt b3lyp/6-31+g(d,p)
 -----------------------

 ------------------
 BisSiMe3-cycl-dieq
 ------------------
 Symbolic Z-matrix:
 Charge =  0 Multiplicity = 1

 SCF Done:  E(RB3LYP) =  -1053.25075659     A.U. after   12 cycles
 SCF Done:  E(RB3LYP) =  -1053.26190659     A.U. after   11 cycles
 SCF Done:  E(RB3LYP) =  -1053.26186863     A.U. after   14 cycles
 SCF Done:  E(RB3LYP) =  -1053.26260230     A.U. after   10 cycles
 SCF Done:  E(RB3LYP) =  -1053.26285530     A.U. after   13 cycles
 SCF Done:  E(RB3LYP) =  -1053.26189404     A.U. after   13 cycles
 SCF Done:  E(RB3LYP) =  -1053.26279725     A.U. after   10 cycles
 SCF Done:  E(RB3LYP) =  -1053.26291736     A.U. after   13 cycles
 SCF Done:  E(RB3LYP) =  -1053.26292699     A.U. after   13 cycles
 SCF Done:  E(RB3LYP) =  -1053.26293337     A.U. after   13 cycles
 SCF Done:  E(RB3LYP) =  -1053.26293522     A.U. after   14 cycles
 SCF Done:  E(RB3LYP) =  -1053.26293677     A.U. after   14 cycles
 SCF Done:  E(RB3LYP) =  -1053.26293711     A.U. after   14 cycles
 SCF Done:  E(RB3LYP) =  -1053.26293742     A.U. after   14 cycles
 SCF Done:  E(RB3LYP) =  -1053.26293756     A.U. after   14 cycles
 Optimization completed.
    -- Stationary point found.

                         Standard orientation:
 ---------------------------------------------------------------------
 Center     Atomic      Atomic             Coordinates (Angstroms)
 Number     Number       Type             X           Y           Z
 ---------------------------------------------------------------------
      1          6           0       -1.466654    1.973249    0.052707
      2          6           0       -0.704171    0.647746    0.348318
      3          6           0        0.704154    0.647780   -0.348235
      4          6           0       -0.666476    3.241157    0.373530
      5          6           0        1.466570    1.973342   -0.052691
      6          6           0        0.666310    3.241190   -0.373542
      7         14           0       -1.914468   -0.808921   -0.034431
      8          6           0       -1.912731   -1.223829   -1.886102
      9          6           0       -1.591316   -2.358602    1.016944
     10          6           0       -3.688411   -0.297703    0.422014
     11         14           0        1.914513   -0.808859    0.034456
     12          6           0        1.913038   -1.223687    1.886146
     13          6           0        1.591188   -2.358548   -1.016858
     14          6           0        3.688407   -0.297686   -0.422231
     15          1           0       -2.405483    1.993943    0.615769
     16          1           0       -1.745831    2.001232   -1.012230
     17          1           0       -0.534885    0.617020    1.438294
     18          1           0        0.534823    0.617027   -1.438202
     19          1           0       -0.478091    3.289180    1.456482
     20          1           0       -1.257903    4.130221    0.118355
     21          1           0        2.405383    1.994080   -0.615773
     22          1           0        1.745771    2.001382    1.012238
     23          1           0        0.477919    3.289167   -1.456495
     24          1           0        1.257678    4.130301   -0.118396
     25          1           0       -2.639231   -2.017215   -2.099088
     26          1           0       -2.203761   -0.347458   -2.477436
     27          1           0       -0.937521   -1.559925   -2.250162
     28          1           0       -2.343448   -3.120205    0.776435
     29          1           0       -0.608521   -2.813555    0.880321
     30          1           0       -1.702151   -2.120396    2.081965
     31          1           0       -4.353580   -1.162894    0.311890
     32          1           0       -3.762951    0.039979    1.462672
     33          1           0       -4.077843    0.500803   -0.217839
     34          1           0        2.639526   -2.017107    2.099050
     35          1           0        2.204219   -0.347310    2.477396
     36          1           0        0.937874   -1.559706    2.250380
     37          1           0        2.343262   -3.120216   -0.776371
     38          1           0        0.608353   -2.813412   -0.880200
     39          1           0        1.701999   -2.120367   -2.081887
     40          1           0        4.353572   -1.162892   -0.312190
     41          1           0        3.762815    0.039987   -1.462901
     42          1           0        4.077939    0.500814    0.217567
 ---------------------------------------------------------------------

 The electronic state is 1-A.
 Alpha  occ. eigenvalues --  -66.12022 -66.12022 -10.18048 -10.18047 -10.17754
 Alpha  occ. eigenvalues --  -10.17734 -10.17732 -10.17717 -10.16262 -10.16261
 Alpha  occ. eigenvalues --  -10.16171 -10.16171 -10.16057 -10.16057  -5.26387
 Alpha  occ. eigenvalues --   -5.26386  -3.62288  -3.62287  -3.62267  -3.62266
 Alpha  occ. eigenvalues --   -3.62236  -3.62235  -0.82150  -0.73957  -0.73742
 Alpha  occ. eigenvalues --   -0.70656  -0.70571  -0.67996  -0.67751  -0.67607
 Alpha  occ. eigenvalues --   -0.67248  -0.60095  -0.60021  -0.54773  -0.48282
 Alpha  occ. eigenvalues --   -0.46195  -0.44546  -0.43822  -0.43180  -0.41993
 Alpha  occ. eigenvalues --   -0.41667  -0.41216  -0.40743  -0.40452  -0.40410
 Alpha  occ. eigenvalues --   -0.39792  -0.39045  -0.38527  -0.38457  -0.37902
 Alpha  occ. eigenvalues --   -0.37890  -0.37516  -0.36987  -0.34909  -0.34677
 Alpha  occ. eigenvalues --   -0.33821  -0.32682  -0.31081  -0.29914  -0.29708
 Alpha  occ. eigenvalues --   -0.29465  -0.29158  -0.27182  -0.25369
 Alpha virt. eigenvalues --   -0.01206   0.00078   0.00391   0.00840   0.02133
 Alpha virt. eigenvalues --    0.02443   0.02769   0.03354   0.03494   0.04172
 Alpha virt. eigenvalues --    0.04884   0.05110   0.06067   0.06189   0.06554

 Mulliken atomic charges:
              1
     1  C   -0.162203
     2  C   -0.498265
     3  C   -0.498216
     4  C   -0.470152
     5  C   -0.162256
     6  C   -0.470125
     7  Si   1.086849
     8  C   -0.654194
     9  C   -0.669857
    10  C   -0.749080
    11  Si   1.086914
    12  C   -0.654210
    13  C   -0.669861
    14  C   -0.749080
    15  H    0.139981
    16  H    0.135411
    17  H    0.142715
    18  H    0.142717
    19  H    0.133287
    20  H    0.130259
    21  H    0.139980
    22  H    0.135410
    23  H    0.133287
    24  H    0.130258
    25  H    0.157520
    26  H    0.159191
    27  H    0.161928
    28  H    0.159653
    29  H    0.155465
    30  H    0.158872
    31  H    0.156701
    32  H    0.160946
    33  H    0.164937
    34  H    0.157522
    35  H    0.159192
    36  H    0.161935
    37  H    0.159653
    38  H    0.155461
    39  H    0.158872
    40  H    0.156703
    41  H    0.160946
    42  H    0.164935
 Sum of Mulliken atomic charges =   0.00000

 Dipole moment (field-independent basis, Debye):
    X=              0.0000    Y=              0.1275    Z=              0.0001  Tot=              0.1275
 Quadrupole moment (field-independent basis, Debye-Ang):
   XX=           -110.7670   YY=           -109.8432   ZZ=           -109.6767
   XY=             -0.0001   XZ=              0.1025   YZ=              0.0000

 Normal termination of Gaussian 09 at Fri Jul 22 23:09:20 2016.
