 Gaussian 09, Revision A.01,
 Gaussian 09:  EM64L-G09RevA.01  8-May-2009

 -----------------------
 # opt b3lyp/6-31+g(d,p)
 -----------------------

 ---------------------
 BisSiMe3-cycl-diaxial
 ---------------------
 Symbolic Z-matrix:
 Charge =  0 Multiplicity = 1

 SCF Done:  E(RB3LYP) =  -1053.25229503     A.U. after   13 cycles
 SCF Done:  E(RB3LYP) =  -1053.26377530     A.U. after   11 cycles
 SCF Done:  E(RB3LYP) =  -1053.26431019     A.U. after   14 cycles
 SCF Done:  E(RB3LYP) =  -1053.26438028     A.U. after   10 cycles
 SCF Done:  E(RB3LYP) =  -1053.26454296     A.U. after   10 cycles
 SCF Done:  E(RB3LYP) =  -1053.26456452     A.U. after    9 cycles
 SCF Done:  E(RB3LYP) =  -1053.26458514     A.U. after    9 cycles
 SCF Done:  E(RB3LYP) =  -1053.26459061     A.U. after    9 cycles
 SCF Done:  E(RB3LYP) =  -1053.26459258     A.U. after    8 cycles
 SCF Done:  E(RB3LYP) =  -1053.26459373     A.U. after    8 cycles
 SCF Done:  E(RB3LYP) =  -1053.26459414     A.U. after    7 cycles
 SCF Done:  E(RB3LYP) =  -1053.26459447     A.U. after    7 cycles
 SCF Done:  E(RB3LYP) =  -1053.26459516     A.U. after    7 cycles
 SCF Done:  E(RB3LYP) =  -1053.26459578     A.U. after    7 cycles
 Optimization completed.
    -- Stationary point found.

                         Standard orientation:
 ---------------------------------------------------------------------
 Center     Atomic      Atomic             Coordinates (Angstroms)
 Number     Number       Type             X           Y           Z
 ---------------------------------------------------------------------
      1          6           0       -0.554467    1.314584   -1.370923
      2          6           0       -0.556293   -0.002558   -0.551809
      3          6           0        0.556291   -0.002556    0.551783
      4          6           0       -0.580074    2.581339   -0.502626
      5          6           0        0.554443    1.314578    1.370912
      6          6           0        0.580020    2.581345    0.502632
      7         14           0       -2.284769   -0.584875    0.062408
      8          6           0       -2.985947    0.345167    1.562544
      9          6           0       -3.532247   -0.443106   -1.362016
     10          6           0       -2.134843   -2.416008    0.542761
     11         14           0        2.284781   -0.584861   -0.062410
     12          6           0        2.986051    0.345285   -1.562439
     13          6           0        3.532193   -0.443220    1.362085
     14          6           0        2.134846   -2.415955   -0.542910
     15          1           0       -1.396939    1.322951   -2.073096
     16          1           0        0.351099    1.352660   -1.991710
     17          1           0       -0.324159   -0.809162   -1.268278
     18          1           0        0.324157   -0.809165    1.268247
     19          1           0       -1.530906    2.645837    0.044391
     20          1           0       -0.530262    3.470563   -1.143769
     21          1           0        1.396917    1.322953    2.073084
     22          1           0       -0.351122    1.352627    1.991703
     23          1           0        1.530849    2.645875   -0.044384
     24          1           0        0.530186    3.470558    1.143790
     25          1           0       -3.967160   -0.070664    1.823730
     26          1           0       -2.343957    0.244978    2.444485
     27          1           0       -3.122396    1.414102    1.367649
     28          1           0       -4.479849   -0.922433   -1.088322
     29          1           0       -3.752494    0.600695   -1.612366
     30          1           0       -3.165703   -0.933257   -2.271837
     31          1           0       -3.107124   -2.810940    0.860583
     32          1           0       -1.788956   -3.026251   -0.299760
     33          1           0       -1.433710   -2.567701    1.371515
     34          1           0        3.967249   -0.070574   -1.823636
     35          1           0        2.344083    0.245215   -2.444410
     36          1           0        3.122553    1.414194   -1.367438
     37          1           0        4.479794   -0.922557    1.088408
     38          1           0        3.752458    0.600558    1.612513
     39          1           0        3.165589   -0.933419    2.271855
     40          1           0        3.107162   -2.810910   -0.860598
     41          1           0        1.788793   -3.026238    0.299512
     42          1           0        1.433843   -2.567558   -1.371790
 ---------------------------------------------------------------------

 The electronic state is 1-A.
 Alpha  occ. eigenvalues --  -66.11843 -66.11843 -10.18056 -10.18055 -10.17925
 Alpha  occ. eigenvalues --  -10.17904 -10.17619 -10.17602 -10.16262 -10.16262
 Alpha  occ. eigenvalues --  -10.16191 -10.16191 -10.16106 -10.16106  -5.26227
 Alpha  occ. eigenvalues --   -5.26227  -3.62115  -3.62115  -3.62114  -3.62113
 Alpha  occ. eigenvalues --   -3.62079  -3.62079  -0.82091  -0.73891  -0.73807
 Alpha  occ. eigenvalues --   -0.71014  -0.70312  -0.67680  -0.67664  -0.67649
 Alpha  occ. eigenvalues --   -0.67531  -0.60421  -0.60377  -0.53894  -0.47997
 Alpha  occ. eigenvalues --   -0.46186  -0.45322  -0.44839  -0.42813  -0.41694
 Alpha  occ. eigenvalues --   -0.41030  -0.40530  -0.40517  -0.40378  -0.40151
 Alpha  occ. eigenvalues --   -0.39325  -0.39081  -0.38845  -0.38628  -0.38168
 Alpha  occ. eigenvalues --   -0.37981  -0.37228  -0.37097  -0.36765  -0.36663
 Alpha  occ. eigenvalues --   -0.32659  -0.31027  -0.30689  -0.30492  -0.29517
 Alpha  occ. eigenvalues --   -0.29470  -0.28859  -0.28781  -0.24335
 Alpha virt. eigenvalues --   -0.01493  -0.00228   0.00575   0.00777   0.02251
 Alpha virt. eigenvalues --    0.02487   0.02593   0.03136   0.03351   0.04495
 Alpha virt. eigenvalues --    0.04753   0.05648   0.05918   0.05945   0.06614

 Mulliken atomic charges:
              1
     1  C   -0.325865
     2  C   -0.536125
     3  C   -0.536104
     4  C   -0.250558
     5  C   -0.325886
     6  C   -0.250564
     7  Si   1.151276
     8  C   -0.701766
     9  C   -0.713154
    10  C   -0.694912
    11  Si   1.151287
    12  C   -0.701766
    13  C   -0.713150
    14  C   -0.694917
    15  H    0.129655
    16  H    0.133608
    17  H    0.120932
    18  H    0.120930
    19  H    0.130140
    20  H    0.130415
    21  H    0.129653
    22  H    0.133611
    23  H    0.130141
    24  H    0.130415
    25  H    0.158923
    26  H    0.159863
    27  H    0.157327
    28  H    0.159050
    29  H    0.158905
    30  H    0.160121
    31  H    0.158000
    32  H    0.159092
    33  H    0.155074
    34  H    0.158924
    35  H    0.159862
    36  H    0.157326
    37  H    0.159050
    38  H    0.158904
    39  H    0.160120
    40  H    0.158000
    41  H    0.159092
    42  H    0.155075
 Sum of Mulliken atomic charges =   0.00000

 Dipole moment (field-independent basis, Debye):
    X=              0.0000    Y=              0.0972    Z=              0.0000  Tot=              0.0972
 Quadrupole moment (field-independent basis, Debye-Ang):
   XX=           -109.8899   YY=           -110.3704   ZZ=           -110.0972
   XY=              0.0000   XZ=             -0.3532   YZ=              0.0000

 Normal termination of Gaussian 09 at Fri Jul 22 20:09:33 2016.
