 Gaussian 09, Revision A.01,
 Gaussian 09:  EM64L-G09RevA.01  8-May-2009

 -------------
 # mp2/cc-pVTZ
 -------------

 -------------------------------------
 1-4-diF-cyclohexane-dieq_single_point
 -------------------------------------
 Symbolic Z-matrix:
 Charge =  0 Multiplicity = 1

                         Standard orientation:
 ---------------------------------------------------------------------
 Center     Atomic      Atomic             Coordinates (Angstroms)
 Number     Number       Type             X           Y           Z
 ---------------------------------------------------------------------
      1          6           0        0.749630    1.266034    0.175757
      2          6           0       -0.749682    1.265986   -0.175752
      3          6           0       -1.424649    0.000000    0.341634
      4          6           0       -0.749621   -1.266012   -0.175749
      5          6           0        0.749671   -1.265984    0.175769
      6          6           0        1.424642   -0.000007   -0.341637
      7          9           0       -2.776576   -0.000025   -0.071560
      8          9           0        2.776579    0.000011    0.071538
      9          1           0       -1.242211   -2.148891    0.243562
     10          1           0       -0.885930   -1.307686   -1.264264
     11          1           0       -1.447664   -0.000011    1.439437
     12          1           0       -0.886004    1.307758   -1.264251
     13          1           0       -1.242264    2.148858    0.243633
     14          1           0        0.886012   -1.307703    1.264280
     15          1           0        1.242276   -2.148869   -0.243560
     16          1           0        1.447634   -0.000016   -1.439452
     17          1           0        0.885958    1.307690    1.264270
     18          1           0        1.242216    2.148894   -0.243583
 ---------------------------------------------------------------------

 SCF Done:  E(RHF) =  -432.074754782     A.U. after   11 cycles
 E2 =    -0.1518898255D+01 EUMP2 =    -0.43359365303684D+03

 The electronic state is 1-A.
 Alpha  occ. eigenvalues --  -26.26858 -26.26858 -11.31679 -11.31679 -11.24130
 Alpha  occ. eigenvalues --  -11.24128 -11.24071 -11.24070  -1.57483  -1.57463
 Alpha  occ. eigenvalues --   -1.13661  -1.03066  -1.01302  -0.86954  -0.84867
 Alpha  occ. eigenvalues --   -0.79449  -0.70297  -0.69258  -0.68871  -0.67088
 Alpha  occ. eigenvalues --   -0.65136  -0.64367  -0.60575  -0.58650  -0.58289
 Alpha  occ. eigenvalues --   -0.55332  -0.52120  -0.51014  -0.50284  -0.49777
 Alpha  occ. eigenvalues --   -0.47070  -0.45251
 Alpha virt. eigenvalues --    0.13382   0.13852   0.15512   0.17672   0.19647
 Alpha virt. eigenvalues --    0.20722   0.21181   0.21966   0.23721   0.23736
 Alpha virt. eigenvalues --    0.27239   0.29297   0.31056   0.32367   0.35761

 Mulliken atomic charges:
              1
     1  C   -0.232303
     2  C   -0.232292
     3  C    0.251549
     4  C   -0.232300
     5  C   -0.232288
     6  C    0.251547
     7  F   -0.323717
     8  F   -0.323721
     9  H    0.124039
    10  H    0.101788
    11  H    0.085110
    12  H    0.101804
    13  H    0.124022
    14  H    0.101794
    15  H    0.124028
    16  H    0.085106
    17  H    0.101790
    18  H    0.124044
 Sum of Mulliken atomic charges =   0.00000

 Dipole moment (field-independent basis, Debye):
    X=              0.0000    Y=              0.0000    Z=              0.0000  Tot=              0.0000
 Quadrupole moment (field-independent basis, Debye-Ang):
   XX=            -65.1022   YY=            -45.0472   ZZ=            -45.5486
   XY=             -0.0001   XZ=             -2.2417   YZ=             -0.0002

 Normal termination of Gaussian 09 at Wed Mar  2 01:04:48 2016.
