 Gaussian 09, Revision A.01,
 Gaussian 09:  EM64L-G09RevA.01  8-May-2009

 -------------
 # mp2/cc-pVTZ
 -------------

 -------------------------------------
 1-4-diF-cyclohexane-diax_single_point
 -------------------------------------
 Symbolic Z-matrix:
 Charge =  0 Multiplicity = 1

                         Standard orientation:
 ---------------------------------------------------------------------
 Center     Atomic      Atomic             Coordinates (Angstroms)
 Number     Number       Type             X           Y           Z
 ---------------------------------------------------------------------
      1          6           0       -0.527552    1.270797   -0.559428
      2          6           0        0.527590    1.270785    0.559455
      3          6           0        1.370139   -0.000014    0.555748
      4          6           0        0.527577   -1.270777    0.559455
      5          6           0       -0.527574   -1.270793   -0.559420
      6          6           0       -1.370132   -0.000007   -0.555761
      7          9           0        2.170144   -0.000007   -0.624877
      8          9           0       -2.170188    0.000019    0.624828
      9          1           0        1.185290   -2.141220    0.464806
     10          1           0        0.032996   -1.343421    1.535681
     11          1           0        2.081949   -0.000007    1.388435
     12          1           0        0.033034    1.343433    1.535691
     13          1           0        1.185332    2.141199    0.464768
     14          1           0       -0.033018   -1.343468   -1.535652
     15          1           0       -1.185309   -2.141214   -0.464726
     16          1           0       -2.081923   -0.000033   -1.388463
     17          1           0       -0.032970    1.343456   -1.535650
     18          1           0       -1.185278    2.141224   -0.464750
 ---------------------------------------------------------------------

 SCF Done:  E(RHF) =  -432.075862116     A.U. after   11 cycles
 E2 =    -0.1519436058D+01 EUMP2 =    -0.43359529817330D+03

 The electronic state is 1-A.
 Alpha  occ. eigenvalues --  -26.26283 -26.26282 -11.31216 -11.31215 -11.23406
 Alpha  occ. eigenvalues --  -11.23404 -11.23346 -11.23345  -1.56793  -1.56713
 Alpha  occ. eigenvalues --   -1.12422  -1.02479  -1.01561  -0.86362  -0.85039
 Alpha  occ. eigenvalues --   -0.76548  -0.70968  -0.69069  -0.67260  -0.67004
 Alpha  occ. eigenvalues --   -0.65774  -0.61643  -0.59482  -0.59071  -0.56883
 Alpha  occ. eigenvalues --   -0.54254  -0.52913  -0.51826  -0.50616  -0.49044
 Alpha  occ. eigenvalues --   -0.44966  -0.44909
 Alpha virt. eigenvalues --    0.13620   0.14959   0.16871   0.18529   0.19305
 Alpha virt. eigenvalues --    0.20220   0.20775   0.21619   0.22584   0.25794
 Alpha virt. eigenvalues --    0.26985   0.28471   0.32210   0.32360   0.34834

 Mulliken atomic charges:
              1
     1  C   -0.209248
     2  C   -0.209245
     3  C    0.213421
     4  C   -0.209246
     5  C   -0.209245
     6  C    0.213414
     7  F   -0.352047
     8  F   -0.352046
     9  H    0.116721
    10  H    0.107316
    11  H    0.109044
    12  H    0.107317
    13  H    0.116721
    14  H    0.107318
    15  H    0.116720
    16  H    0.109045
    17  H    0.107317
    18  H    0.116722
 Sum of Mulliken atomic charges =   0.00000

 Dipole moment (field-independent basis, Debye):
    X=              0.0001    Y=             -0.0001    Z=              0.0001  Tot=              0.0001
 Quadrupole moment (field-independent basis, Debye-Ang):
   XX=            -56.1079   YY=            -45.2826   ZZ=            -46.8113
   XY=              0.0002   XZ=              6.6684   YZ=              0.0000

 Normal termination of Gaussian 09 at Wed Mar  2 00:51:55 2016.
