 Gaussian 09, Revision A.01,
 Gaussian 09:  EM64L-G09RevA.01  8-May-2009

 -------------
 # mp2/cc-pVTZ
 -------------

 --------------------------------------
 1-4-diCl-cyclohexane-diax_single_point
 --------------------------------------
 Symbolic Z-matrix:
 Charge =  0 Multiplicity = 1

                         Standard orientation:
 ---------------------------------------------------------------------
 Center     Atomic      Atomic             Coordinates (Angstroms)
 Number     Number       Type             X           Y           Z
 ---------------------------------------------------------------------
      1          6           0       -0.388426    1.269702   -0.661836
      2          6           0        0.388426    1.269706    0.661933
      3          6           0        1.218018    0.000007    0.865320
      4          6           0        0.388442   -1.269689    0.661942
      5          6           0       -0.388387   -1.269711   -0.661831
      6          6           0       -1.217957   -0.000015   -0.865284
      7         17           0        2.666361    0.000004   -0.288236
      8         17           0       -2.666417   -0.000005    0.288121
      9          1           0       -0.319547   -1.324047    1.499420
     10          1           0        1.029878   -2.153670    0.725158
     11          1           0        1.684201    0.000007    1.851974
     12          1           0        1.029857    2.153688    0.725125
     13          1           0       -0.319576    1.324054    1.499401
     14          1           0       -1.029822   -2.153693   -0.725024
     15          1           0        0.319633   -1.324083   -1.499284
     16          1           0       -1.684062   -0.000024   -1.851974
     17          1           0       -1.029894    2.153663   -0.725019
     18          1           0        0.319579    1.324120   -1.499299
 ---------------------------------------------------------------------

 SCF Done:  E(RHF) =  -1152.16716056     A.U. after   12 cycles
 E2 =    -0.1404982757D+01 EUMP2 =    -0.11535721433127D+04

 The electronic state is 1-A.
 Alpha  occ. eigenvalues -- -104.81584-104.81584 -11.30696 -11.30695 -11.24420
 Alpha  occ. eigenvalues --  -11.24418 -11.24359 -11.24358 -10.54097 -10.54097
 Alpha  occ. eigenvalues --   -8.00760  -8.00760  -8.00608  -8.00608  -8.00606
 Alpha  occ. eigenvalues --   -8.00606  -1.17230  -1.12278  -1.04971  -1.03088
 Alpha  occ. eigenvalues --   -0.98347  -0.86481  -0.83428  -0.73646  -0.68864
 Alpha  occ. eigenvalues --   -0.64687  -0.63173  -0.59378  -0.58075  -0.57174
 Alpha  occ. eigenvalues --   -0.55128  -0.51274  -0.49881  -0.48636  -0.47927
 Alpha  occ. eigenvalues --   -0.46817  -0.43500  -0.43109  -0.42689  -0.42557
 Alpha virt. eigenvalues --    0.12934   0.14320   0.16258   0.16909   0.17958
 Alpha virt. eigenvalues --    0.19044   0.19595   0.19759   0.21440   0.22568
 Alpha virt. eigenvalues --    0.23285   0.24861   0.28893   0.30991   0.31418

 Mulliken atomic charges:
              1
     1  C   -0.192368
     2  C   -0.192364
     3  C   -0.022622
     4  C   -0.192363
     5  C   -0.192367
     6  C   -0.022622
     7  Cl  -0.256961
     8  Cl  -0.256963
     9  H    0.123736
    10  H    0.130400
    11  H    0.156036
    12  H    0.130402
    13  H    0.123736
    14  H    0.130402
    15  H    0.123739
    16  H    0.156037
    17  H    0.130402
    18  H    0.123739
 Sum of Mulliken atomic charges =   0.00000

 Dipole moment (field-independent basis, Debye):
    X=              0.0002    Y=              0.0000    Z=              0.0002  Tot=              0.0003
 Quadrupole moment (field-independent basis, Debye-Ang):
   XX=            -77.7422   YY=            -61.3766   ZZ=            -59.9966
   XY=             -0.0001   XZ=              3.8724   YZ=              0.0000

 Normal termination of Gaussian 09 at Wed Mar  2 00:23:56 2016.
