 Gaussian 09, Revision A.01,
 Gaussian 09:  EM64L-G09RevA.01  8-May-2009

 -------------
 # mp2/cc-pVTZ
 -------------

 --------------------------------------
 1-4-diCl-cyclohexane-dieq_single_point
 --------------------------------------
 Symbolic Z-matrix:
 Charge =  0 Multiplicity = 1

                         Standard orientation:
 ---------------------------------------------------------------------
 Center     Atomic      Atomic             Coordinates (Angstroms)
 Number     Number       Type             X           Y           Z
 ---------------------------------------------------------------------
      1          6           0       -0.753931    1.266766   -0.162280
      2          6           0        0.753918    1.266799    0.162336
      3          6           0        1.418360    0.000010   -0.376967
      4          6           0        0.753924   -1.266776    0.162343
      5          6           0       -0.753921   -1.266788   -0.162281
      6          6           0       -1.418357    0.000009    0.376966
      7         17           0        3.202123   -0.000004    0.040164
      8         17           0       -3.202111   -0.000006   -0.040216
      9          1           0        0.906631   -1.314509    1.247652
     10          1           0        1.228314   -2.154388   -0.266988
     11          1           0        1.396975   -0.000008   -1.470623
     12          1           0        1.228275    2.154412   -0.267001
     13          1           0        0.906610    1.314530    1.247650
     14          1           0       -1.228297   -2.154409    0.267023
     15          1           0       -0.906630   -1.314515   -1.247608
     16          1           0       -1.397060    0.000016    1.470648
     17          1           0       -1.228334    2.154381    0.267031
     18          1           0       -0.906648    1.314542   -1.247604
 ---------------------------------------------------------------------

 SCF Done:  E(RHF) =  -1152.16850974     A.U. after   12 cycles
 E2 =    -0.1403126025D+01 EUMP2 =    -0.11535716357681D+04

 The electronic state is 1-A.
 Alpha  occ. eigenvalues -- -104.82012-104.82012 -11.30840 -11.30839 -11.24989
 Alpha  occ. eigenvalues --  -11.24987 -11.24930 -11.24929 -10.54513 -10.54512
 Alpha  occ. eigenvalues --   -8.01179  -8.01179  -8.01019  -8.01018  -8.01017
 Alpha  occ. eigenvalues --   -8.01017  -1.17644  -1.13223  -1.06312  -1.03510
 Alpha  occ. eigenvalues --   -0.97013  -0.86865  -0.82665  -0.78742  -0.67302
 Alpha  occ. eigenvalues --   -0.63162  -0.62602  -0.62548  -0.57876  -0.55783
 Alpha  occ. eigenvalues --   -0.55151  -0.52547  -0.51680  -0.49485  -0.48970
 Alpha  occ. eigenvalues --   -0.46727  -0.43466  -0.43265  -0.43155  -0.42817
 Alpha virt. eigenvalues --    0.12058   0.13647   0.15299   0.17740   0.18446
 Alpha virt. eigenvalues --    0.18967   0.20401   0.20531   0.21604   0.22019
 Alpha virt. eigenvalues --    0.23157   0.23368   0.28396   0.28519   0.32593

 Mulliken atomic charges:
              1
     1  C   -0.199019
     2  C   -0.199020
     3  C    0.005775
     4  C   -0.199021
     5  C   -0.199020
     6  C    0.005790
     7  Cl  -0.243214
     8  Cl  -0.243217
     9  H    0.112063
    10  H    0.133739
    11  H    0.143880
    12  H    0.133745
    13  H    0.112060
    14  H    0.133747
    15  H    0.112050
    16  H    0.143870
    17  H    0.133740
    18  H    0.112052
 Sum of Mulliken atomic charges =   0.00000

 Dipole moment (field-independent basis, Debye):
    X=              0.0000    Y=              0.0000    Z=              0.0001  Tot=              0.0001
 Quadrupole moment (field-independent basis, Debye-Ang):
   XX=            -83.3388   YY=            -61.2782   ZZ=            -61.8391
   XY=              0.0000   XZ=             -1.3138   YZ=              0.0000

 Normal termination of Gaussian 09 at Wed Mar  2 00:38:42 2016.
