 Gaussian 09, Revision A.01,
 Gaussian 09:  EM64L-G09RevA.01  8-May-2009

 -------------
 # mp2/cc-pVTZ
 -------------

 --------------------------------
 aminocyclohexane-eq_single_point
 --------------------------------
 Symbolic Z-matrix:
 Charge =  0 Multiplicity = 1

                         Standard orientation:
 ---------------------------------------------------------------------
 Center     Atomic      Atomic             Coordinates (Angstroms)
 Number     Number       Type             X           Y           Z
 ---------------------------------------------------------------------
      1          6           0        1.030354    0.000006    0.314223
      2          6           0        0.311828   -1.261406   -0.186049
      3          6           0       -1.172764   -1.269554    0.213202
      4          6           0       -1.892106    0.000000   -0.270281
      5          6           0       -1.172731    1.269574    0.213200
      6          6           0        0.311856    1.261389   -0.186028
      7          7           0        2.419950   -0.000022   -0.163782
      8          1           0       -1.663421   -2.162957   -0.191694
      9          1           0       -1.256919   -1.337987    1.307701
     10          1           0       -2.934045    0.000049    0.073140
     11          1           0       -1.924331    0.000010   -1.369485
     12          1           0       -1.256936    1.338004    1.307690
     13          1           0       -1.663413    2.162946   -0.191732
     14          1           0        0.408569   -1.298503   -1.279760
     15          1           0        0.814764   -2.156125    0.206334
     16          1           0        0.814796    2.156138    0.206305
     17          1           0        0.408595    1.298483   -1.279740
     18          1           0        0.972951    0.000001    1.419962
     19          1           0        2.920565   -0.818849    0.174165
     20          1           0        2.920538    0.818893    0.173990
 ---------------------------------------------------------------------

 SCF Done:  E(RHF) =  -289.332551061     A.U. after   11 cycles
 E2 =    -0.1254580606D+01 EUMP2 =    -0.29058713166697D+03

 The electronic state is 1-A.
 Alpha  occ. eigenvalues --  -15.53077 -11.24709 -11.21605 -11.21590 -11.21475
 Alpha  occ. eigenvalues --  -11.21224 -11.21223  -1.17817  -1.08855  -0.99793
 Alpha  occ. eigenvalues --   -0.96940  -0.83089  -0.80938  -0.74716  -0.63912
 Alpha  occ. eigenvalues --   -0.63845  -0.62567  -0.60095  -0.58810  -0.53056
 Alpha  occ. eigenvalues --   -0.52196  -0.49785  -0.49477  -0.47896  -0.45387
 Alpha  occ. eigenvalues --   -0.43712  -0.42404  -0.38268
 Alpha virt. eigenvalues --    0.13938   0.15115   0.16188   0.16408   0.19613
 Alpha virt. eigenvalues --    0.20064   0.21206   0.22807   0.22945   0.23963
 Alpha virt. eigenvalues --    0.24476   0.25265   0.26137   0.30330   0.33177

 Mulliken atomic charges:
              1
     1  C    0.039620
     2  C   -0.186082
     3  C   -0.204052
     4  C   -0.188905
     5  C   -0.204058
     6  C   -0.186079
     7  N   -0.386069
     8  H    0.108489
     9  H    0.084679
    10  H    0.107212
    11  H    0.087323
    12  H    0.084683
    13  H    0.108490
    14  H    0.094547
    15  H    0.097101
    16  H    0.097098
    17  H    0.094542
    18  H    0.078410
    19  H    0.136526
    20  H    0.136524
 Sum of Mulliken atomic charges =   0.00000

 Dipole moment (field-independent basis, Debye):
    X=              0.0063    Y=              0.0001    Z=              1.1985  Tot=              1.1985
 Quadrupole moment (field-independent basis, Debye-Ang):
   XX=            -45.1601   YY=            -45.0851   ZZ=            -47.2736
   XY=              0.0002   XZ=              3.7041   YZ=             -0.0004

 Normal termination of Gaussian 09 at Wed Mar  2 01:34:31 2016.
