 Gaussian 09, Revision A.01,
 Gaussian 09:  EM64L-G09RevA.01  8-May-2009

 -------------
 # mp2/cc-pVTZ
 -------------

 --------------------------------
 aminocyclohexane-ax_single_point
 --------------------------------
 Symbolic Z-matrix:
 Charge =  0 Multiplicity = 1

                         Standard orientation:
 ---------------------------------------------------------------------
 Center     Atomic      Atomic             Coordinates (Angstroms)
 Number     Number       Type             X           Y           Z
 ---------------------------------------------------------------------
      1          6           0       -1.147751   -0.000036    0.460159
      2          6           0       -0.282291   -1.266295    0.609757
      3          6           0        0.942063   -1.268375   -0.319602
      4          6           0        1.789414    0.000041   -0.128559
      5          6           0        0.942004    1.268403   -0.319579
      6          6           0       -0.282364    1.266267    0.609775
      7          7           0       -1.795023   -0.000020   -0.863408
      8          1           0        1.547675   -2.163248   -0.128873
      9          1           0        0.605851   -1.324196   -1.361748
     10          1           0        2.635496    0.000068   -0.826960
     11          1           0        2.220606    0.000031    0.884378
     12          1           0        0.605790    1.324223   -1.361722
     13          1           0        1.547571    2.163308   -0.128835
     14          1           0        0.051421   -1.328843    1.655090
     15          1           0       -0.900339   -2.156941    0.430423
     16          1           0       -0.900425    2.156904    0.430441
     17          1           0        0.051318    1.328803    1.655115
     18          1           0       -1.890209   -0.000068    1.277698
     19          1           0       -2.387948    0.818653   -0.976448
     20          1           0       -2.388103   -0.818587   -0.976409
 ---------------------------------------------------------------------

 SCF Done:  E(RHF) =  -289.330817353     A.U. after   11 cycles
 E2 =    -0.1255463658D+01 EUMP2 =    -0.29058628101109D+03

 The electronic state is 1-A.
 Alpha  occ. eigenvalues --  -15.53118 -11.24852 -11.21323 -11.21322 -11.20969
 Alpha  occ. eigenvalues --  -11.20782 -11.20772  -1.17910  -1.07963  -0.99463
 Alpha  occ. eigenvalues --   -0.97072  -0.82632  -0.81237  -0.73078  -0.64868
 Alpha  occ. eigenvalues --   -0.64756  -0.61462  -0.59559  -0.57223  -0.53239
 Alpha  occ. eigenvalues --   -0.51778  -0.50263  -0.49690  -0.47209  -0.45426
 Alpha  occ. eigenvalues --   -0.43166  -0.42096  -0.37878
 Alpha virt. eigenvalues --    0.13410   0.16041   0.16629   0.16955   0.19579
 Alpha virt. eigenvalues --    0.20138   0.20657   0.22148   0.22371   0.24065
 Alpha virt. eigenvalues --    0.25244   0.26042   0.26574   0.31997   0.32841

 Mulliken atomic charges:
              1
     1  C    0.000036
     2  C   -0.200652
     3  C   -0.175380
     4  C   -0.198216
     5  C   -0.175376
     6  C   -0.200663
     7  N   -0.393924
     8  H    0.105226
     9  H    0.092298
    10  H    0.105137
    11  H    0.080260
    12  H    0.092297
    13  H    0.105224
    14  H    0.093102
    15  H    0.097640
    16  H    0.097641
    17  H    0.093103
    18  H    0.103350
    19  H    0.139449
    20  H    0.139448
 Sum of Mulliken atomic charges =   0.00000

 Dipole moment (field-independent basis, Debye):
    X=             -0.9872    Y=              0.0001    Z=              0.6656  Tot=              1.1906
 Quadrupole moment (field-independent basis, Debye-Ang):
   XX=            -42.7470   YY=            -45.3231   ZZ=            -47.7414
   XY=             -0.0001   XZ=              0.5303   YZ=             -0.0003

 Normal termination of Gaussian 09 at Wed Mar  2 01:21:13 2016.
