 Gaussian 09, Revision A.01,
 Gaussian 09:  EM64L-G09RevA.01  8-May-2009

 -------------
 # mp2/cc-pVTZ
 -------------

 ----------------------------------
 BisSiMe3_cycl_dieq_sp_single_point
 ----------------------------------
 Symbolic Z-matrix:
 Charge =  0 Multiplicity = 1

                         Standard orientation:
 ---------------------------------------------------------------------
 Center     Atomic      Atomic             Coordinates (Angstroms)
 Number     Number       Type             X           Y           Z
 ---------------------------------------------------------------------
      1          6           0        0.667175    3.241638   -0.371860
      2          6           0       -0.667448    3.241576    0.371850
      3          6           0       -1.466691    1.973459    0.049243
      4          6           0       -0.704660    0.648227    0.347278
      5          6           0        0.704625    0.648278   -0.347145
      6          6           0        1.466574    1.973599   -0.049260
      7         14           0       -1.914532   -0.808952   -0.034508
      8          6           0       -3.688202   -0.297255    0.422988
      9         14           0        1.914591   -0.808850    0.034551
     10          6           0        3.688166   -0.297295   -0.423479
     11          6           0       -1.912744   -1.225693   -1.885903
     12          6           0       -1.591378   -2.358150    1.017934
     13          6           0        1.913361   -1.225326    1.886013
     14          6           0        1.591086   -2.358132   -1.017663
     15          1           0       -2.406994    1.994146    0.609642
     16          1           0       -1.742960    2.000804   -1.016434
     17          1           0       -0.536935    0.618408    1.437518
     18          1           0        0.536823    0.618413   -1.437371
     19          1           0       -0.481819    3.289573    1.455261
     20          1           0       -1.258375    4.130430    0.115197
     21          1           0        2.406819    1.994351   -0.609740
     22          1           0        1.742928    2.001040    1.016397
     23          1           0        0.481549    3.289619   -1.455271
     24          1           0        1.258022    4.130551   -0.115209
     25          1           0       -2.637358   -2.020939   -2.098135
     26          1           0       -2.205776   -0.350520   -2.477952
     27          1           0       -0.936705   -1.559838   -2.249519
     28          1           0       -2.346390   -3.117838    0.780507
     29          1           0       -0.610298   -2.815856    0.878399
     30          1           0       -1.698062   -2.118700    2.083050
     31          1           0       -4.352985   -1.163070    0.315980
     32          1           0       -3.761000    0.042747    1.462982
     33          1           0       -4.078953    0.499658   -0.217977
     34          1           0        2.638003   -2.020583    2.098114
     35          1           0        2.206626   -0.350094    2.477861
     36          1           0        0.937428   -1.559361    2.249979
     37          1           0        2.346018   -3.117904   -0.780261
     38          1           0        0.609953   -2.815697   -0.877965
     39          1           0        1.697644   -2.118802   -2.082818
     40          1           0        4.352941   -1.163124   -0.316515
     41          1           0        3.760714    0.042534   -1.463547
     42          1           0        4.079127    0.499707    0.217246
 ---------------------------------------------------------------------

 SCF Done:  E(RHF) =  -1048.83962192     A.U. after   11 cycles
 E2 =    -0.2372237863D+01 EUMP2 =    -0.10512118597843D+04

 The electronic state is 1-A.
 Alpha  occ. eigenvalues --  -68.75135 -68.75135 -11.21595 -11.21594 -11.21239
 Alpha  occ. eigenvalues --  -11.21177 -11.21143 -11.21092 -11.19574 -11.19574
 Alpha  occ. eigenvalues --  -11.19485 -11.19484 -11.19310 -11.19310  -6.09794
 Alpha  occ. eigenvalues --   -6.09793  -4.20431  -4.20431  -4.20417  -4.20417
 Alpha  occ. eigenvalues --   -4.20387  -4.20387  -1.10110  -0.99771  -0.99466
 Alpha  occ. eigenvalues --   -0.95387  -0.95337  -0.92094  -0.91787  -0.91623
 Alpha  occ. eigenvalues --   -0.91185  -0.81941  -0.81802  -0.74504  -0.65138
 Alpha  occ. eigenvalues --   -0.62670  -0.60540  -0.59799  -0.58818  -0.57302
 Alpha  occ. eigenvalues --   -0.56909  -0.56262  -0.55760  -0.55536  -0.55314
 Alpha  occ. eigenvalues --   -0.54614  -0.53619  -0.53093  -0.53065  -0.52424
 Alpha  occ. eigenvalues --   -0.52391  -0.51935  -0.50898  -0.48781  -0.48299
 Alpha  occ. eigenvalues --   -0.47541  -0.46182  -0.44087  -0.42365  -0.42119
 Alpha  occ. eigenvalues --   -0.41863  -0.41501  -0.38899  -0.36616
 Alpha virt. eigenvalues --    0.12517   0.14075   0.14565   0.15175   0.17317
 Alpha virt. eigenvalues --    0.17527   0.17764   0.17961   0.18298   0.19248
 Alpha virt. eigenvalues --    0.19336   0.19911   0.21339   0.22019   0.22044

 Mulliken atomic charges:
              1
     1  C   -0.188247
     2  C   -0.188243
     3  C   -0.221083
     4  C   -0.186330
     5  C   -0.186343
     6  C   -0.221082
     7  Si   0.374810
     8  C   -0.438246
     9  Si   0.374840
    10  C   -0.438238
    11  C   -0.420061
    12  C   -0.443661
    13  C   -0.420043
    14  C   -0.443695
    15  H    0.123022
    16  H    0.095927
    17  H    0.108157
    18  H    0.108156
    19  H    0.085932
    20  H    0.105760
    21  H    0.123025
    22  H    0.095920
    23  H    0.085935
    24  H    0.105756
    25  H    0.109487
    26  H    0.107225
    27  H    0.117010
    28  H    0.117335
    29  H    0.120487
    30  H    0.108876
    31  H    0.109328
    32  H    0.104867
    33  H    0.109405
    34  H    0.109480
    35  H    0.107226
    36  H    0.116996
    37  H    0.117346
    38  H    0.120490
    39  H    0.108876
    40  H    0.109327
    41  H    0.104870
    42  H    0.109404
 Sum of Mulliken atomic charges =   0.00000

 Dipole moment (field-independent basis, Debye):
    X=              0.0000    Y=              0.1653    Z=              0.0001  Tot=              0.1653
 Quadrupole moment (field-independent basis, Debye-Ang):
   XX=           -111.2551   YY=           -110.0004   ZZ=           -109.5799
   XY=             -0.0002   XZ=              0.1334   YZ=              0.0000

 1\1\GINC-ROCK\SP\RMP2-FC\CC-pVTZ\C12H28Si2\STYLIANAKIS\27-Sep-2016\0\\
 # mp2/cc-pVTZ\\BisSiMe3_cycl_dieq_sp_single_point\\0,1\C\C,1,1.527849\
 C,2,1.533293,1,110.668\C,3,1.557484,2,114.106,1,55.936,0\C,4,1.571085,
 3,110.749,2,-52.528,0\C,5,1.557491,4,110.752,3,49.008,0\Si,4,1.932076,
 3,107.31,2,176.973,0\C,7,1.901852,4,109.484,3,-34.87,0\Si,5,1.932079,4
 ,118.321,3,173.46,0\C,9,1.901854,5,109.486,4,-161.01,0\C,7,1.89772,4,1
 10.966,3,83.182,0\C,7,1.900546,4,113.508,3,-150.778,0\C,9,1.897727,5,1
 10.968,4,-42.959,0\C,9,1.900549,5,113.504,4,83.084,0\H,3,1.094827,4,10

 Normal termination of Gaussian 09 at Tue Sep 27 12:42:49 2016.
