 Gaussian 09, Revision A.01,
 Gaussian 09:  EM64L-G09RevA.01  8-May-2009

 -------------
 # mp2/cc-pVTZ
 -------------

 -------------------------------------
 BisSiMe3_cycl_diaxial_sp_single_point
 -------------------------------------
 Symbolic Z-matrix:
 Charge =  0 Multiplicity = 1

                         Standard orientation:
 ---------------------------------------------------------------------
 Center     Atomic      Atomic             Coordinates (Angstroms)
 Number     Number       Type             X           Y           Z
 ---------------------------------------------------------------------
      1          6           0        0.580057    2.580986    0.502836
      2          6           0       -0.579698    2.581086   -0.502850
      3          6           0       -0.553544    1.314387   -1.371190
      4          6           0       -0.556029   -0.002712   -0.552057
      5          6           0        0.555993   -0.002749    0.552121
      6          6           0        0.553568    1.314367    1.371208
      7         14           0       -2.284741   -0.584569    0.062299
      8          6           0       -2.137915   -2.419757    0.528065
      9         14           0        2.284678   -0.584647   -0.062288
     10          6           0        2.137768   -2.419802   -0.528156
     11          6           0       -2.978181    0.335486    1.572190
     12          6           0       -3.536666   -0.429176   -1.356794
     13          6           0        2.978155    0.335425   -1.572151
     14          6           0        3.536632   -0.429359    1.356792
     15          1           0       -1.395512    1.322756   -2.073920
     16          1           0        0.352485    1.352415   -1.991235
     17          1           0       -0.323700   -0.809424   -1.268365
     18          1           0        0.323663   -0.809463    1.268430
     19          1           0       -1.530782    2.645424    0.043830
     20          1           0       -0.529759    3.470368   -1.143874
     21          1           0        1.395383    1.322648    2.074125
     22          1           0       -0.352604    1.352572    1.991029
     23          1           0        1.531158    2.645028   -0.043841
     24          1           0        0.530341    3.470331    1.143795
     25          1           0       -3.960842   -0.077971    1.831650
     26          1           0       -2.334770    0.223759    2.451704
     27          1           0       -3.109692    1.406847    1.387576
     28          1           0       -4.485701   -0.904889   -1.081808
     29          1           0       -3.752354    0.616905   -1.601472
     30          1           0       -3.175950   -0.916974   -2.270196
     31          1           0       -3.108192   -2.812679    0.854352
     32          1           0       -1.804611   -3.025359   -0.322833
     33          1           0       -1.427796   -2.580535    1.347393
     34          1           0        3.960763   -0.078118   -1.831673
     35          1           0        2.334698    0.223816   -2.451648
     36          1           0        3.109807    1.406760   -1.387491
     37          1           0        4.485657   -0.905075    1.081782
     38          1           0        3.752325    0.616711    1.601519
     39          1           0        3.175920   -0.917195    2.270174
     40          1           0        3.108036   -2.812761   -0.854424
     41          1           0        1.804398   -3.025445    0.322686
     42          1           0        1.427673   -2.580498   -1.347520
 ---------------------------------------------------------------------

 SCF Done:  E(RHF) =  -1048.84253312     A.U. after   12 cycles
 E2 =    -0.2369929903D+01 EUMP2 =    -0.10512124630231D+04

 The electronic state is 1-A.
 Alpha  occ. eigenvalues --  -68.74924 -68.74924 -11.21625 -11.21624 -11.21486
 Alpha  occ. eigenvalues --  -11.21428 -11.20973 -11.20921 -11.19572 -11.19572
 Alpha  occ. eigenvalues --  -11.19477 -11.19477 -11.19380 -11.19380  -6.09601
 Alpha  occ. eigenvalues --   -6.09600  -4.20228  -4.20228  -4.20225  -4.20225
 Alpha  occ. eigenvalues --   -4.20197  -4.20196  -1.10089  -0.99666  -0.99650
 Alpha  occ. eigenvalues --   -0.95790  -0.94997  -0.91706  -0.91687  -0.91655
 Alpha  occ. eigenvalues --   -0.91518  -0.82282  -0.82278  -0.73543  -0.64715
 Alpha  occ. eigenvalues --   -0.62726  -0.61473  -0.61185  -0.58448  -0.56922
 Alpha  occ. eigenvalues --   -0.56051  -0.55464  -0.55402  -0.55299  -0.55057
 Alpha  occ. eigenvalues --   -0.54008  -0.53777  -0.53434  -0.53251  -0.52744
 Alpha  occ. eigenvalues --   -0.52505  -0.51581  -0.51143  -0.51111  -0.50924
 Alpha  occ. eigenvalues --   -0.46252  -0.43814  -0.43418  -0.43187  -0.41926
 Alpha  occ. eigenvalues --   -0.41907  -0.41141  -0.41032  -0.35350
 Alpha virt. eigenvalues --    0.11905   0.13664   0.15179   0.15292   0.17148
 Alpha virt. eigenvalues --    0.17389   0.17419   0.17899   0.17974   0.19377
 Alpha virt. eigenvalues --    0.19810   0.20050   0.20917   0.21708   0.22744

 Mulliken atomic charges:
              1
     1  C   -0.194851
     2  C   -0.194854
     3  C   -0.241855
     4  C   -0.212599
     5  C   -0.212596
     6  C   -0.241836
     7  Si   0.414360
     8  C   -0.429549
     9  Si   0.414350
    10  C   -0.429556
    11  C   -0.439463
    12  C   -0.432206
    13  C   -0.439465
    14  C   -0.432202
    15  H    0.126010
    16  H    0.115125
    17  H    0.116605
    18  H    0.116608
    19  H    0.091096
    20  H    0.113154
    21  H    0.126009
    22  H    0.115116
    23  H    0.091094
    24  H    0.113156
    25  H    0.115291
    26  H    0.108128
    27  H    0.112399
    28  H    0.108938
    29  H    0.105066
    30  H    0.105900
    31  H    0.108166
    32  H    0.105498
    33  H    0.104786
    34  H    0.115292
    35  H    0.108128
    36  H    0.112402
    37  H    0.108938
    38  H    0.105066
    39  H    0.105899
    40  H    0.108166
    41  H    0.105499
    42  H    0.104786
 Sum of Mulliken atomic charges =   0.00000

 Dipole moment (field-independent basis, Debye):
    X=              0.0000    Y=              0.1651    Z=              0.0000  Tot=              0.1651
 Quadrupole moment (field-independent basis, Debye-Ang):
   XX=           -110.3088   YY=           -110.5336   ZZ=           -110.0728
   XY=              0.0000   XZ=             -0.3941   YZ=              0.0000

 1\1\GINC-ROCK\SP\RMP2-FC\CC-pVTZ\C12H28Si2\STYLIANAKIS\27-Sep-2016\0\\
 # mp2/cc-pVTZ\\BisSiMe3_cycl_diaxial_sp_single_point\\0,1\C\C,1,1.5350
 69\C,2,1.535977,1,110.944\C,3,1.551043,2,113.685,1,55.174,0\C,4,1.5671
 ,3,111.777,2,-50.993,0\C,5,1.551033,4,111.775,3,47.75,0\Si,4,1.924692,
 3,115.26,2,81.819,0\C,7,1.899055,4,107.517,3,162.291,0\Si,5,1.924696,4
 ,114.357,3,-85.505,0\C,9,1.899055,5,107.517,4,-66.108,0\C,7,1.899245,4
 ,115.801,3,-77.469,0\C,7,1.89876,4,109.202,3,45.04,0\C,9,1.899245,5,11
 5.802,4,54.131,0\C,9,1.89876,5,109.202,4,176.64,0\H,3,1.096727,4,110.0

 Normal termination of Gaussian 09 at Tue Sep 27 06:25:07 2016.
