 Gaussian 09, Revision A.01,
 Gaussian 09:  EM64L-G09RevA.01  8-May-2009

 -------------
 # mp2/cc-pVTZ
 -------------

 ---------------------------------
 chlorocyclohexane-eq_single_point
 ---------------------------------
 Symbolic Z-matrix:
 Charge =  0 Multiplicity = 1

                         Standard orientation:
 ---------------------------------------------------------------------
 Center     Atomic      Atomic             Coordinates (Angstroms)
 Number     Number       Type             X           Y           Z
 ---------------------------------------------------------------------
      1          6           0       -0.609498    0.000002    0.373170
      2          6           0        0.059206    1.268969   -0.152939
      3          6           0        1.559828    1.268156    0.198311
      4          6           0        2.261365    0.000013   -0.312296
      5          6           0        1.559859   -1.268148    0.198316
      6          6           0        0.059241   -1.268976   -0.152946
      7         17           0       -2.395005   -0.000009   -0.066852
      8          1           0        2.031372    2.164594   -0.221389
      9          1           0        1.678953    1.335962    1.289214
     10          1           0        3.314087    0.000029   -0.005108
     11          1           0        2.255203    0.000011   -1.411662
     12          1           0        1.678986   -1.335948    1.289219
     13          1           0        2.031425   -2.164575   -0.221382
     14          1           0       -0.067819    1.310019   -1.242416
     15          1           0       -0.435765    2.152856    0.262613
     16          1           0       -0.435723   -2.152868    0.262601
     17          1           0       -0.067774   -1.310009   -1.242424
     18          1           0       -0.607863   -0.000011    1.467531
 ---------------------------------------------------------------------

 SCF Done:  E(RHF) =  -693.227716818     A.U. after   12 cycles
 E2 =    -0.1223057954D+01 EUMP2 =    -0.69445077477156D+03

 The electronic state is 1-A.
 Alpha  occ. eigenvalues -- -104.80805 -11.29557 -11.23354 -11.23352 -11.23154
 Alpha  occ. eigenvalues --  -11.23149 -11.22859 -10.53310  -7.99975  -7.99819
 Alpha  occ. eigenvalues --   -7.99818  -1.15035  -1.08100  -1.01612  -0.98082
 Alpha  occ. eigenvalues --   -0.84720  -0.82440  -0.76800  -0.65757  -0.61884
 Alpha  occ. eigenvalues --   -0.61298  -0.60832  -0.54692  -0.54013  -0.53019
 Alpha  occ. eigenvalues --   -0.51068  -0.49803  -0.46858  -0.45575  -0.44727
 Alpha  occ. eigenvalues --   -0.42069  -0.41799
 Alpha virt. eigenvalues --    0.12881   0.14685   0.15909   0.16922   0.20067
 Alpha virt. eigenvalues --    0.20437   0.20943   0.21412   0.22016   0.22091
 Alpha virt. eigenvalues --    0.24205   0.24284   0.29471   0.31361   0.33313

 Mulliken atomic charges:
              1
     1  C    0.004497
     2  C   -0.179465
     3  C   -0.210291
     4  C   -0.189674
     5  C   -0.210290
     6  C   -0.179466
     7  Cl  -0.258298
     8  H    0.115471
     9  H    0.093193
    10  H    0.113401
    11  H    0.091923
    12  H    0.093193
    13  H    0.115472
    14  H    0.104544
    15  H    0.126107
    16  H    0.126108
    17  H    0.104544
    18  H    0.139032
 Sum of Mulliken atomic charges =   0.00000

 Dipole moment (field-independent basis, Debye):
    X=              2.7870    Y=              0.0000    Z=              0.4202  Tot=              2.8185
 Quadrupole moment (field-independent basis, Debye-Ang):
   XX=            -58.1505   YY=            -51.0024   ZZ=            -50.9588
   XY=             -0.0001   XZ=             -0.4278   YZ=              0.0000

 Normal termination of Gaussian 09 at Wed Mar  2 01:58:06 2016.
