 Gaussian 09, Revision A.01,
 Gaussian 09:  EM64L-G09RevA.01  8-May-2009

 -------------
 # mp2/cc-pVTZ
 -------------

 ---------------------------------
 chlorocyclohexane-ax_single_point
 ---------------------------------
 Symbolic Z-matrix:
 Charge =  0 Multiplicity = 1

                         Standard orientation:
 ---------------------------------------------------------------------
 Center     Atomic      Atomic             Coordinates (Angstroms)
 Number     Number       Type             X           Y           Z
 ---------------------------------------------------------------------
      1          6           0       -0.694900    0.000010    0.827294
      2          6           0        0.155055   -1.271956    0.765104
      3          6           0        1.152630   -1.270634   -0.403605
      4          6           0        2.018128    0.000001   -0.403558
      5          6           0        1.152623    1.270635   -0.403609
      6          6           0        0.155049    1.271957    0.765099
      7         17           0       -1.933165   -0.000005   -0.548462
      8          1           0        1.785572   -2.163949   -0.343311
      9          1           0        0.600395   -1.338995   -1.349071
     10          1           0        2.687571    0.000004   -1.272135
     11          1           0        2.663338    0.000000    0.487803
     12          1           0        0.600387    1.338991   -1.349076
     13          1           0        1.785562    2.163954   -0.343319
     14          1           0        0.708535   -1.321864    1.715251
     15          1           0       -0.493616   -2.153117    0.729928
     16          1           0       -0.493627    2.153114    0.729920
     17          1           0        0.708528    1.321871    1.715247
     18          1           0       -1.320342    0.000007    1.722269
 ---------------------------------------------------------------------

 SCF Done:  E(RHF) =  -693.226144453     A.U. after   12 cycles
 E2 =    -0.1223969258D+01 EUMP2 =    -0.69445011371149D+03

 The electronic state is 1-A.
 Alpha  occ. eigenvalues -- -104.80691 -11.29775 -11.23470 -11.23469 -11.22408
 Alpha  occ. eigenvalues --  -11.22360 -11.22323 -10.53206  -7.99869  -7.99717
 Alpha  occ. eigenvalues --   -7.99715  -1.14904  -1.07190  -1.01382  -0.98508
 Alpha  occ. eigenvalues --   -0.84474  -0.83065  -0.74073  -0.66858  -0.62370
 Alpha  occ. eigenvalues --   -0.61341  -0.59223  -0.55227  -0.54254  -0.53580
 Alpha  occ. eigenvalues --   -0.49536  -0.48983  -0.46107  -0.45078  -0.45073
 Alpha  occ. eigenvalues --   -0.41970  -0.41773
 Alpha virt. eigenvalues --    0.13033   0.15509   0.16103   0.16684   0.19385
 Alpha virt. eigenvalues --    0.20002   0.20365   0.21579   0.21848   0.23317
 Alpha virt. eigenvalues --    0.23814   0.25250   0.30919   0.31037   0.32650

 Mulliken atomic charges:
              1
     1  C   -0.018706
     2  C   -0.184563
     3  C   -0.198183
     4  C   -0.198154
     5  C   -0.198184
     6  C   -0.184561
     7  Cl  -0.259057
     8  H    0.112810
     9  H    0.109322
    10  H    0.111977
    11  H    0.085273
    12  H    0.109322
    13  H    0.112809
    14  H    0.100133
    15  H    0.123828
    16  H    0.123828
    17  H    0.100133
    18  H    0.151971
 Sum of Mulliken atomic charges =   0.00000

 Dipole moment (field-independent basis, Debye):
    X=              1.9585    Y=              0.0000    Z=              1.5674  Tot=              2.5085
 Quadrupole moment (field-independent basis, Debye-Ang):
   XX=            -55.9377   YY=            -51.0990   ZZ=            -50.4588
   XY=              0.0000   XZ=             -1.7672   YZ=              0.0000

 Normal termination of Gaussian 09 at Wed Mar  2 01:46:26 2016.
