 Gaussian 09, Revision A.01,
 Gaussian 09:  EM64L-G09RevA.01  8-May-2009

 -------------
 # mp2/cc-pVTZ
 -------------

 -----------------------------------------
 cis1-3dimethylcyclohex-ax-ax_single_point
 -----------------------------------------
 Symbolic Z-matrix:
 Charge =  0 Multiplicity = 1

                         Standard orientation:
 ---------------------------------------------------------------------
 Center     Atomic      Atomic             Coordinates (Angstroms)
 Number     Number       Type             X           Y           Z
 ---------------------------------------------------------------------
      1          6           0       -1.267384    1.190192    0.110651
      2          6           0        0.000029    1.569141   -0.673292
      3          6           0        1.267413    1.190159    0.110682
      4          6           0        1.318174   -0.309534    0.480214
      5          6           0       -0.000014   -0.732911    1.175867
      6          6           0       -1.318183   -0.309508    0.480224
      7          6           0        1.720587   -1.192220   -0.714980
      8          6           0       -1.720621   -1.192186   -0.714964
      9          1           0        2.166078    1.465179   -0.456882
     10          1           0        1.291752    1.782893    1.036712
     11          1           0        2.113408   -0.434098    1.229263
     12          1           0        0.000016   -0.275669    2.175742
     13          1           0        0.000046    1.074105   -1.653305
     14          1           0        0.000034    2.646771   -0.879374
     15          1           0       -2.113432   -0.434034    1.229267
     16          1           0       -1.291725    1.782952    1.036660
     17          1           0       -2.166035    1.465208   -0.456935
     18          1           0        2.738915   -0.948948   -1.040758
     19          1           0        1.703309   -2.254081   -0.443423
     20          1           0        1.063421   -1.063481   -1.579284
     21          1           0       -0.000008   -1.819184    1.339310
     22          1           0       -1.703344   -2.254049   -0.443412
     23          1           0       -2.738961   -0.948920   -1.040714
     24          1           0       -1.063479   -1.063435   -1.579285
 ---------------------------------------------------------------------

 SCF Done:  E(RHF) =  -312.371310796     A.U. after   11 cycles
 E2 =    -0.1399967749D+01 EUMP2 =    -0.31377127854451D+03

 The electronic state is 1-A.
 Alpha  occ. eigenvalues --  -11.22173 -11.22172 -11.21347 -11.21278 -11.21255
 Alpha  occ. eigenvalues --  -11.21251 -11.20767 -11.20767  -1.11578  -1.03441
 Alpha  occ. eigenvalues --   -1.00780  -0.92525  -0.91081  -0.81972  -0.78988
 Alpha  occ. eigenvalues --   -0.70510  -0.65497  -0.61251  -0.59859  -0.58823
 Alpha  occ. eigenvalues --   -0.56838  -0.54864  -0.54534  -0.53110  -0.50412
 Alpha  occ. eigenvalues --   -0.48448  -0.48044  -0.46866  -0.46227  -0.43419
 Alpha  occ. eigenvalues --   -0.41555  -0.41431
 Alpha virt. eigenvalues --    0.13094   0.15807   0.15947   0.16835   0.19257
 Alpha virt. eigenvalues --    0.19953   0.19987   0.20802   0.20930   0.22744
 Alpha virt. eigenvalues --    0.23797   0.24398   0.25968   0.27082   0.27162

 Mulliken atomic charges:
              1
     1  C   -0.194414
     2  C   -0.217337
     3  C   -0.194409
     4  C   -0.085420
     5  C   -0.209168
     6  C   -0.085418
     7  C   -0.317986
     8  C   -0.317986
     9  H    0.103408
    10  H    0.095460
    11  H    0.108512
    12  H    0.104239
    13  H    0.093526
    14  H    0.115510
    15  H    0.108512
    16  H    0.095463
    17  H    0.103408
    18  H    0.104028
    19  H    0.100695
    20  H    0.091617
    21  H    0.101421
    22  H    0.100694
    23  H    0.104028
    24  H    0.091618
 Sum of Mulliken atomic charges =   0.00000

 Dipole moment (field-independent basis, Debye):
    X=              0.0000    Y=              0.0677    Z=              0.1429  Tot=              0.1581
 Quadrupole moment (field-independent basis, Debye-Ang):
   XX=            -54.2583   YY=            -54.4069   ZZ=            -54.1626
   XY=              0.0000   XZ=              0.0000   YZ=             -0.1774

 Normal termination of Gaussian 09 at Wed Mar  2 02:24:19 2016.
