 Gaussian 09, Revision A.01,
 Gaussian 09:  EM64L-G09RevA.01  8-May-2009

 -------------
 # mp2/cc-pVTZ
 -------------

 -----------------------------------------
 cis1-3dimethylcyclohex-eq-eq_single_point
 -----------------------------------------
 Symbolic Z-matrix:
 Charge =  0 Multiplicity = 1

                         Standard orientation:
 ---------------------------------------------------------------------
 Center     Atomic      Atomic             Coordinates (Angstroms)
 Number     Number       Type             X           Y           Z
 ---------------------------------------------------------------------
      1          6           0       -1.270023    1.110680    0.226023
      2          6           0        0.000033    1.874137   -0.178626
      3          6           0        1.270006    1.110705    0.226040
      4          6           0        1.285606   -0.324944   -0.330868
      5          6           0       -0.000006   -1.069376    0.075532
      6          6           0       -1.285583   -0.324951   -0.330833
      7          6           0        2.542943   -1.089655    0.101125
      8          6           0       -2.542964   -1.089633    0.101133
      9          1           0        2.162810    1.652399   -0.113135
     10          1           0        1.331896    1.064812    1.324386
     11          1           0        1.294272   -0.253420   -1.430561
     12          1           0        0.000027   -1.209911    1.168600
     13          1           0       -0.000012    2.025278   -1.268084
     14          1           0       -0.000013    2.874076    0.272886
     15          1           0       -1.294285   -0.253411   -1.430524
     16          1           0       -1.331916    1.064863    1.324365
     17          1           0       -2.162752    1.652396   -0.113285
     18          1           0        2.562793   -2.098646   -0.327178
     19          1           0        3.454465   -0.571700   -0.219390
     20          1           0        2.584347   -1.191103    1.193068
     21          1           0        0.000009   -2.076080   -0.364758
     22          1           0       -3.454456   -0.571636   -0.219414
     23          1           0       -2.562849   -2.098613   -0.327198
     24          1           0       -2.584413   -1.191086    1.193068
 ---------------------------------------------------------------------

 SCF Done:  E(RHF) =  -312.382163532     A.U. after   11 cycles
 E2 =    -0.1397580632D+01 EUMP2 =    -0.31377974416373D+03

 The electronic state is 1-A.
 Alpha  occ. eigenvalues --  -11.22085 -11.22084 -11.21439 -11.21281 -11.21269
 Alpha  occ. eigenvalues --  -11.21164 -11.20897 -11.20896  -1.11910  -1.03997
 Alpha  occ. eigenvalues --   -1.01169  -0.91718  -0.91117  -0.81443  -0.77923
 Alpha  occ. eigenvalues --   -0.74677  -0.63318  -0.61679  -0.60173  -0.58407
 Alpha  occ. eigenvalues --   -0.57859  -0.54065  -0.52995  -0.52665  -0.50921
 Alpha  occ. eigenvalues --   -0.50275  -0.47122  -0.46999  -0.45857  -0.44485
 Alpha  occ. eigenvalues --   -0.41977  -0.41746
 Alpha virt. eigenvalues --    0.14127   0.15309   0.15630   0.16035   0.19243
 Alpha virt. eigenvalues --    0.19451   0.20581   0.21082   0.22068   0.23200
 Alpha virt. eigenvalues --    0.23425   0.23909   0.24189   0.26124   0.27645

 Mulliken atomic charges:
              1
     1  C   -0.184565
     2  C   -0.205486
     3  C   -0.184548
     4  C   -0.076283
     5  C   -0.178918
     6  C   -0.076274
     7  C   -0.307145
     8  C   -0.307141
     9  H    0.105439
    10  H    0.084726
    11  H    0.096937
    12  H    0.083961
    13  H    0.087058
    14  H    0.107757
    15  H    0.096932
    16  H    0.084732
    17  H    0.105443
    18  H    0.097516
    19  H    0.098040
    20  H    0.087487
    21  H    0.101294
    22  H    0.098035
    23  H    0.097514
    24  H    0.087491
 Sum of Mulliken atomic charges =   0.00000

 Dipole moment (field-independent basis, Debye):
    X=              0.0000    Y=              0.0860    Z=             -0.1515  Tot=              0.1742
 Quadrupole moment (field-independent basis, Debye-Ang):
   XX=            -55.3066   YY=            -54.5711   ZZ=            -53.5213
   XY=             -0.0002   XZ=              0.0002   YZ=              0.2453

 Normal termination of Gaussian 09 at Wed Mar  2 02:48:32 2016.
