 Gaussian 09, Revision A.01,
 Gaussian 09:  EM64L-G09RevA.01  8-May-2009

 -------------
 # mp2/cc-pVTZ
 -------------

 --------------------------------
 cyclohexanethiol-ax_single_point
 --------------------------------
 Symbolic Z-matrix:
 Charge =  0 Multiplicity = 1

                         Standard orientation:
 ---------------------------------------------------------------------
 Center     Atomic      Atomic             Coordinates (Angstroms)
 Number     Number       Type             X           Y           Z
 ---------------------------------------------------------------------
      1          6           0        0.692583    0.016618    0.818156
      2          6           0       -0.174765    1.286181    0.742566
      3          6           0       -1.169723    1.270603   -0.428315
      4          6           0       -2.038586    0.002628   -0.409870
      5          6           0       -1.176284   -1.269777   -0.387760
      6          6           0       -0.180603   -1.252228    0.784500
      7         16           0        1.951053   -0.091599   -0.556732
      8          1           0       -1.801924    2.165757   -0.383642
      9          1           0       -0.616159    1.319684   -1.374178
     10          1           0       -2.707706   -0.009417   -1.278871
     11          1           0       -2.684174    0.017138    0.481188
     12          1           0       -0.630323   -1.356773   -1.336049
     13          1           0       -1.812635   -2.159860   -0.311530
     14          1           0       -0.734271    1.350889    1.688765
     15          1           0        0.460773    2.178764    0.698402
     16          1           0        0.453177   -2.146325    0.771590
     17          1           0       -0.742871   -1.280223    1.729090
     18          1           0        1.269240    0.022486    1.748079
     19          1           0        2.614287    1.039324   -0.240804
 ---------------------------------------------------------------------

 SCF Done:  E(RHF) =  -631.828530375     A.U. after   12 cycles
 E2 =    -0.1217135894D+01 EUMP2 =    -0.63304566626938D+03

 The electronic state is 1-A.
 Alpha  occ. eigenvalues --  -91.94109 -11.26596 -11.22868 -11.22791 -11.22021
 Alpha  occ. eigenvalues --  -11.21935 -11.21806  -8.94302  -6.62431  -6.62327
 Alpha  occ. eigenvalues --   -6.62236  -1.12421  -1.02757  -1.00677  -0.92884
 Alpha  occ. eigenvalues --   -0.83696  -0.81830  -0.73152  -0.65728  -0.61938
 Alpha  occ. eigenvalues --   -0.60791  -0.58621  -0.54196  -0.53434  -0.53054
 Alpha  occ. eigenvalues --   -0.50185  -0.48277  -0.47169  -0.43995  -0.43651
 Alpha  occ. eigenvalues --   -0.42197  -0.34956
 Alpha virt. eigenvalues --    0.12591   0.15108   0.15922   0.16758   0.18099
 Alpha virt. eigenvalues --    0.19810   0.20048   0.21204   0.21781   0.22305
 Alpha virt. eigenvalues --    0.23636   0.23993   0.25837   0.31152   0.32045

 Mulliken atomic charges:
              1
     1  C   -0.092414
     2  C   -0.194959
     3  C   -0.188587
     4  C   -0.194806
     5  C   -0.199696
     6  C   -0.209526
     7  S   -0.207786
     8  H    0.110762
     9  H    0.104535
    10  H    0.109870
    11  H    0.084338
    12  H    0.106544
    13  H    0.112382
    14  H    0.098747
    15  H    0.111777
    16  H    0.123299
    17  H    0.100477
    18  H    0.138683
    19  H    0.086362
 Sum of Mulliken atomic charges =   0.00000

 Dipole moment (field-independent basis, Debye):
    X=             -1.0223    Y=              0.7059    Z=              1.2767  Tot=              1.7814
 Quadrupole moment (field-independent basis, Debye-Ang):
   XX=            -54.8579   YY=            -52.1856   ZZ=            -53.3363
   XY=              2.9751   XZ=              1.3401   YZ=              0.0377

 Normal termination of Gaussian 09 at Wed Mar  2 03:01:55 2016.
