 Gaussian 09, Revision A.01,
 Gaussian 09:  EM64L-G09RevA.01  8-May-2009

 -------------
 # mp2/cc-pVTZ
 -------------

 --------------------------------------
 cyclohexylmethylketone-eq_single_point
 --------------------------------------
 Symbolic Z-matrix:
 Charge =  0 Multiplicity = 1

                         Standard orientation:
 ---------------------------------------------------------------------
 Center     Atomic      Atomic             Coordinates (Angstroms)
 Number     Number       Type             X           Y           Z
 ---------------------------------------------------------------------
      1          6           0       -0.476377   -1.307798    0.063067
      2          6           0        0.348963   -0.043671    0.346930
      3          6           0       -0.258019    1.189283   -0.372398
      4          6           0       -1.741203    1.375978   -0.013491
      5          6           0       -2.560228    0.105900   -0.287924
      6          6           0       -1.955971   -1.111886    0.427668
      7          6           0        1.825704   -0.215697   -0.009551
      8          8           0        2.239844   -1.210139   -0.582910
      9          6           0        2.775360    0.914485    0.359470
     10          1           0        0.301771    2.097053   -0.119599
     11          1           0       -0.160106    1.046658   -1.458230
     12          1           0       -2.151764    2.224879   -0.574044
     13          1           0       -1.822015    1.635984    1.052116
     14          1           0       -2.580117   -0.084230   -1.370904
     15          1           0       -3.601744    0.254051    0.022724
     16          1           0        0.317537    0.168407    1.429126
     17          1           0       -2.522172   -2.017640    0.178782
     18          1           0       -2.051059   -0.976033    1.515357
     19          1           0       -0.384484   -1.557395   -1.001471
     20          1           0       -0.052222   -2.157166    0.609324
     21          1           0        3.795764    0.529351    0.406546
     22          1           0        2.737857    1.688408   -0.417006
     23          1           0        2.504619    1.389220    1.307936
 ---------------------------------------------------------------------

 SCF Done:  E(RHF) =  -386.104644620     A.U. after   13 cycles
 E2 =    -0.1593833461D+01 EUMP2 =    -0.38769847808156D+03

 The electronic state is 1-A.
 Alpha  occ. eigenvalues --  -20.53845 -11.32585 -11.23980 -11.23405 -11.23284
 Alpha  occ. eigenvalues --  -11.22669 -11.22157 -11.22019 -11.21720  -1.37557
 Alpha  occ. eigenvalues --   -1.12341  -1.03633  -1.00729  -0.98628  -0.85948
 Alpha  occ. eigenvalues --   -0.83626  -0.76768  -0.72734  -0.66289  -0.63620
 Alpha  occ. eigenvalues --   -0.61702  -0.61296  -0.59765  -0.58642  -0.57614
 Alpha  occ. eigenvalues --   -0.54049  -0.53000  -0.51640  -0.49845  -0.48746
 Alpha  occ. eigenvalues --   -0.47611  -0.46105  -0.45318  -0.43368  -0.39771
 Alpha virt. eigenvalues --    0.12907   0.14451   0.14989   0.15582   0.16531
 Alpha virt. eigenvalues --    0.18795   0.19693   0.20794   0.21245   0.21755
 Alpha virt. eigenvalues --    0.22668   0.24260   0.24525   0.24635   0.25301

 Mulliken atomic charges:
              1
     1  C   -0.184450
     2  C   -0.109406
     3  C   -0.215713
     4  C   -0.197643
     5  C   -0.188762
     6  C   -0.201722
     7  C    0.278479
     8  O   -0.371050
     9  C   -0.311857
    10  H    0.116016
    11  H    0.104697
    12  H    0.112530
    13  H    0.088895
    14  H    0.089574
    15  H    0.109998
    16  H    0.113056
    17  H    0.112075
    18  H    0.085356
    19  H    0.106572
    20  H    0.118249
    21  H    0.134560
    22  H    0.107217
    23  H    0.103330
 Sum of Mulliken atomic charges =   0.00000

 Dipole moment (field-independent basis, Debye):
    X=             -1.3910    Y=              2.5928    Z=              1.3424  Tot=              3.2341
 Quadrupole moment (field-independent basis, Debye-Ang):
   XX=            -60.1761   YY=            -59.5832   ZZ=            -56.7615
   XY=              6.5152   XZ=              3.5040   YZ=             -1.7864

 Normal termination of Gaussian 09 at Wed Mar  2 04:13:28 2016.
