 Gaussian 09, Revision A.01,
 Gaussian 09:  EM64L-G09RevA.01  8-May-2009

 -------------
 # mp2/cc-pVTZ
 -------------

 -----------------------------------
 cyclohexylphosphine-ax_single_point
 -----------------------------------
 Symbolic Z-matrix:
 Charge =  0 Multiplicity = 1

                         Standard orientation:
 ---------------------------------------------------------------------
 Center     Atomic      Atomic             Coordinates (Angstroms)
 Number     Number       Type             X           Y           Z
 ---------------------------------------------------------------------
      1          6           0       -0.678369    0.000016    0.810473
      2          6           0        0.201460   -1.269456    0.760700
      3          6           0        1.199914   -1.269610   -0.409818
      4          6           0        2.066051   -0.000007   -0.408023
      5          6           0        1.199929    1.269602   -0.409815
      6          6           0        0.201476    1.269456    0.760701
      7         15           0       -1.963315   -0.000016   -0.593786
      8          1           0        1.834213   -2.162734   -0.351064
      9          1           0        0.656046   -1.335438   -1.361542
     10          1           0        2.739958   -0.000014   -1.273538
     11          1           0        2.706371   -0.000009    0.486882
     12          1           0        0.656051    1.335454   -1.361537
     13          1           0        1.834237    2.162719   -0.351060
     14          1           0        0.765565   -1.322545    1.704112
     15          1           0       -0.425543   -2.169605    0.728958
     16          1           0       -0.425494    2.169628    0.728981
     17          1           0        0.765583    1.322501    1.704114
     18          1           0       -1.234093    0.000017    1.754446
     19          1           0       -2.783059   -1.038290   -0.063494
     20          1           0       -2.782868    1.038558   -0.063783
 ---------------------------------------------------------------------

 SCF Done:  E(RHF) =  -575.605338748     A.U. after   13 cycles
 E2 =    -0.1198064019D+01 EUMP2 =    -0.57680340276709D+03

 The electronic state is 1-A.
 Alpha  occ. eigenvalues --  -79.93118 -11.23700 -11.22481 -11.22479 -11.21829
 Alpha  occ. eigenvalues --  -11.21793 -11.21745  -7.47341  -5.36707  -5.36674
 Alpha  occ. eigenvalues --   -5.36580  -1.11407  -1.00802  -1.00308  -0.85930
 Alpha  occ. eigenvalues --   -0.83243  -0.79790  -0.71878  -0.64975  -0.61399
 Alpha  occ. eigenvalues --   -0.60303  -0.57788  -0.53191  -0.53181  -0.52688
 Alpha  occ. eigenvalues --   -0.49783  -0.47724  -0.46751  -0.44300  -0.43081
 Alpha  occ. eigenvalues --   -0.42733  -0.35031
 Alpha virt. eigenvalues --    0.12453   0.15337   0.15399   0.16104   0.17380
 Alpha virt. eigenvalues --    0.17939   0.19990   0.21072   0.21199   0.21983
 Alpha virt. eigenvalues --    0.22080   0.23220   0.25432   0.27147   0.30619

 Mulliken atomic charges:
              1
     1  C   -0.166065
     2  C   -0.211920
     3  C   -0.197047
     4  C   -0.190498
     5  C   -0.197048
     6  C   -0.211915
     7  P   -0.015058
     8  H    0.111906
     9  H    0.103109
    10  H    0.109335
    11  H    0.084258
    12  H    0.103103
    13  H    0.111906
    14  H    0.098516
    15  H    0.116852
    16  H    0.116856
    17  H    0.098513
    18  H    0.129833
    19  H    0.002684
    20  H    0.002682
 Sum of Mulliken atomic charges =   0.00000

 Dipole moment (field-independent basis, Debye):
    X=              0.5655    Y=              0.0001    Z=              1.1534  Tot=              1.2846
 Quadrupole moment (field-independent basis, Debye-Ang):
   XX=            -54.7248   YY=            -53.4726   ZZ=            -55.9711
   XY=             -0.0002   XZ=             -1.6126   YZ=             -0.0004

 Normal termination of Gaussian 09 at Wed Mar  2 04:29:07 2016.
