 Gaussian 09, Revision A.01,
 Gaussian 09:  EM64L-G09RevA.01  8-May-2009

 -------------
 # mp2/cc-pVTZ
 -------------

 -----------------------------------
 cyclohexylphosphine-eq_single_point
 -----------------------------------
 Symbolic Z-matrix:
 Charge =  0 Multiplicity = 1

                         Standard orientation:
 ---------------------------------------------------------------------
 Center     Atomic      Atomic             Coordinates (Angstroms)
 Number     Number       Type             X           Y           Z
 ---------------------------------------------------------------------
      1          6           0        0.613373   -0.000010    0.363008
      2          6           0       -0.094910   -1.268643   -0.151682
      3          6           0       -1.592058   -1.268484    0.204226
      4          6           0       -2.294910   -0.000003   -0.302951
      5          6           0       -1.592052    1.268490    0.204206
      6          6           0       -0.094898    1.268652   -0.151667
      7         15           0        2.426312    0.000001   -0.175829
      8          1           0       -2.072581   -2.163137   -0.210847
      9          1           0       -1.703406   -1.332188    1.296365
     10          1           0       -3.347601    0.000003    0.005487
     11          1           0       -2.291498   -0.000006   -1.402701
     12          1           0       -1.703425    1.332207    1.296343
     13          1           0       -2.072586    2.163126   -0.210891
     14          1           0        0.017154   -1.326091   -1.244385
     15          1           0        0.386697   -2.164826    0.259488
     16          1           0        0.386699    2.164827    0.259523
     17          1           0        0.017209    1.326095   -1.244362
     18          1           0        0.571691    0.000004    1.460119
     19          1           0        2.874835    1.038771    0.691260
     20          1           0        2.874853   -1.038820    0.691191
 ---------------------------------------------------------------------

 SCF Done:  E(RHF) =  -575.609116604     A.U. after   13 cycles
 E2 =    -0.1196662743D+01 EUMP2 =    -0.57680577934659D+03

 The electronic state is 1-A.
 Alpha  occ. eigenvalues --  -79.93196 -11.23578 -11.22472 -11.22469 -11.22121
 Alpha  occ. eigenvalues --  -11.22109 -11.21970  -7.47416  -5.36780  -5.36749
 Alpha  occ. eigenvalues --   -5.36654  -1.11644  -1.01085  -1.00447  -0.86051
 Alpha  occ. eigenvalues --   -0.83462  -0.78230  -0.74810  -0.64039  -0.60522
 Alpha  occ. eigenvalues --   -0.60112  -0.59576  -0.54039  -0.52805  -0.50137
 Alpha  occ. eigenvalues --   -0.49256  -0.48934  -0.48490  -0.45625  -0.43217
 Alpha  occ. eigenvalues --   -0.41376  -0.35493
 Alpha virt. eigenvalues --    0.12782   0.15019   0.15497   0.15837   0.16947
 Alpha virt. eigenvalues --    0.18004   0.19948   0.20546   0.21003   0.22386
 Alpha virt. eigenvalues --    0.23009   0.24045   0.24802   0.25127   0.29616

 Mulliken atomic charges:
              1
     1  C   -0.148290
     2  C   -0.202674
     3  C   -0.198125
     4  C   -0.187908
     5  C   -0.198125
     6  C   -0.202677
     7  P   -0.012114
     8  H    0.109618
     9  H    0.088392
    10  H    0.109000
    11  H    0.088337
    12  H    0.088391
    13  H    0.109618
    14  H    0.101394
    15  H    0.117007
    16  H    0.117009
    17  H    0.101395
    18  H    0.112901
    19  H    0.003425
    20  H    0.003425
 Sum of Mulliken atomic charges =   0.00000

 Dipole moment (field-independent basis, Debye):
    X=             -1.1688    Y=              0.0000    Z=              0.8605  Tot=              1.4514
 Quadrupole moment (field-independent basis, Debye-Ang):
   XX=            -57.4773   YY=            -53.4377   ZZ=            -55.1781
   XY=             -0.0001   XZ=              2.7140   YZ=              0.0001

 Normal termination of Gaussian 09 at Wed Mar  2 04:44:12 2016.
