 Gaussian 09, Revision A.01,
 Gaussian 09:  EM64L-G09RevA.01  8-May-2009

 -------------
 # mp2/cc-pVTZ
 -------------

 --------------------------------
 cyclohexanethiol-eq_single_point
 --------------------------------
 Symbolic Z-matrix:
 Charge =  0 Multiplicity = 1

                         Standard orientation:
 ---------------------------------------------------------------------
 Center     Atomic      Atomic             Coordinates (Angstroms)
 Number     Number       Type             X           Y           Z
 ---------------------------------------------------------------------
      1          6           0        0.616315    0.010473    0.371981
      2          6           0       -0.071590   -1.266632   -0.135391
      3          6           0       -1.570494   -1.264063    0.214072
      4          6           0       -2.275286   -0.003750   -0.310665
      5          6           0       -1.576930    1.271893    0.184640
      6          6           0       -0.077799    1.268941   -0.167393
      7         16           0        2.408612   -0.076073   -0.101766
      8          1           0       -2.043540   -2.165310   -0.194306
      9          1           0       -1.687694   -1.317851    1.305989
     10          1           0       -3.328532   -0.003365   -0.004520
     11          1           0       -2.268437   -0.016318   -1.410151
     12          1           0       -1.695159    1.350687    1.275125
     13          1           0       -2.053890    2.161349   -0.244721
     14          1           0        0.049689   -1.328044   -1.226038
     15          1           0        0.416574   -2.150725    0.290563
     16          1           0        0.406042    2.167925    0.233882
     17          1           0        0.049189    1.301763   -1.257633
     18          1           0        0.577172    0.015947    1.468219
     19          1           0        2.775506    1.099942    0.448386
 ---------------------------------------------------------------------

 SCF Done:  E(RHF) =  -631.831386455     A.U. after   13 cycles
 E2 =    -0.1215847076D+01 EUMP2 =    -0.63304723353058D+03

 The electronic state is 1-A.
 Alpha  occ. eigenvalues --  -91.94187 -11.26422 -11.22838 -11.22718 -11.22535
 Alpha  occ. eigenvalues --  -11.22498 -11.22312  -8.94372  -6.62500  -6.62395
 Alpha  occ. eigenvalues --   -6.62303  -1.12707  -1.03353  -1.00905  -0.92601
 Alpha  occ. eigenvalues --   -0.83986  -0.80969  -0.75819  -0.64765  -0.61185
 Alpha  occ. eigenvalues --   -0.60797  -0.60300  -0.54866  -0.53332  -0.51456
 Alpha  occ. eigenvalues --   -0.50326  -0.49100  -0.47212  -0.45951  -0.43790
 Alpha  occ. eigenvalues --   -0.41751  -0.35035
 Alpha virt. eigenvalues --    0.12888   0.14766   0.15317   0.16331   0.18513
 Alpha virt. eigenvalues --    0.19999   0.20342   0.21267   0.22106   0.22300
 Alpha virt. eigenvalues --    0.23273   0.24416   0.24735   0.30023   0.31571

 Mulliken atomic charges:
              1
     1  C   -0.070438
     2  C   -0.203677
     3  C   -0.203701
     4  C   -0.188435
     5  C   -0.202786
     6  C   -0.182370
     7  S   -0.207430
     8  H    0.112426
     9  H    0.090819
    10  H    0.110684
    11  H    0.089982
    12  H    0.089661
    13  H    0.111910
    14  H    0.105032
    15  H    0.125182
    16  H    0.110997
    17  H    0.103011
    18  H    0.123910
    19  H    0.085224
 Sum of Mulliken atomic charges =   0.00000

 Dipole moment (field-independent basis, Debye):
    X=             -1.7730    Y=              0.7072    Z=              0.6558  Tot=              2.0184
 Quadrupole moment (field-independent basis, Debye-Ang):
   XX=            -57.2512   YY=            -51.8822   ZZ=            -53.4421
   XY=              2.8254   XZ=              1.4536   YZ=              1.0228

 Normal termination of Gaussian 09 at Wed Mar  2 03:15:33 2016.
