 Gaussian 09, Revision A.01,
 Gaussian 09:  EM64L-G09RevA.01  8-May-2009

 -------------
 # mp2/cc-pVTZ
 -------------

 --------------------------------------
 cyclohexylmethylketone-ax_single_point
 --------------------------------------
 Symbolic Z-matrix:
 Charge =  0 Multiplicity = 1

                         Standard orientation:
 ---------------------------------------------------------------------
 Center     Atomic      Atomic             Coordinates (Angstroms)
 Number     Number       Type             X           Y           Z
 ---------------------------------------------------------------------
      1          6           0       -0.288802    1.339020    0.678454
      2          6           0        0.379239   -0.042997    0.895498
      3          6           0       -0.678096   -1.163598    0.909917
      4          6           0       -1.599373   -1.128995   -0.321779
      5          6           0       -2.243788    0.252158   -0.518687
      6          6           0       -1.181537    1.361857   -0.572613
      7          6           0        1.522889   -0.316755   -0.090226
      8          8           0        1.602751   -1.360446   -0.717499
      9          6           0        2.595967    0.751524   -0.240191
     10          1           0       -0.182293   -2.136759    0.978024
     11          1           0       -1.284327   -1.043679    1.818706
     12          1           0       -2.376500   -1.896256   -0.218258
     13          1           0       -1.015283   -1.392247   -1.211460
     14          1           0       -2.933411    0.458320    0.313588
     15          1           0       -2.848117    0.261762   -1.434054
     16          1           0        0.878676   -0.012854    1.877999
     17          1           0       -1.659272    2.344926   -0.666456
     18          1           0       -0.564313    1.229358   -1.473415
     19          1           0       -0.908131    1.553326    1.559881
     20          1           0        0.462972    2.134776    0.632790
     21          1           0        3.496031    0.299355   -0.660636
     22          1           0        2.245701    1.528910   -0.930217
     23          1           0        2.827256    1.241350    0.711272
 ---------------------------------------------------------------------

 SCF Done:  E(RHF) =  -386.102287529     A.U. after   15 cycles
 E2 =    -0.1595542092D+01 EUMP2 =    -0.38769782962120D+03

 The electronic state is 1-A.
 Alpha  occ. eigenvalues --  -20.53917 -11.32738 -11.24084 -11.23344 -11.23260
 Alpha  occ. eigenvalues --  -11.22430 -11.21829 -11.21796 -11.21208  -1.37700
 Alpha  occ. eigenvalues --   -1.12097  -1.03357  -1.00542  -0.98542  -0.85885
 Alpha  occ. eigenvalues --   -0.83370  -0.77840  -0.70599  -0.65998  -0.64643
 Alpha  occ. eigenvalues --   -0.62421  -0.61351  -0.59034  -0.58457  -0.56175
 Alpha  occ. eigenvalues --   -0.53477  -0.52948  -0.51854  -0.51371  -0.48821
 Alpha  occ. eigenvalues --   -0.48203  -0.45882  -0.43369  -0.43148  -0.39910
 Alpha virt. eigenvalues --    0.12414   0.14078   0.15202   0.16675   0.17362
 Alpha virt. eigenvalues --    0.19137   0.19471   0.20144   0.21315   0.22104
 Alpha virt. eigenvalues --    0.23011   0.23472   0.24700   0.25593   0.27628

 Mulliken atomic charges:
              1
     1  C   -0.233832
     2  C   -0.127982
     3  C   -0.194954
     4  C   -0.203854
     5  C   -0.192328
     6  C   -0.194758
     7  C    0.279592
     8  O   -0.374670
     9  C   -0.309235
    10  H    0.120251
    11  H    0.100985
    12  H    0.109256
    13  H    0.113661
    14  H    0.083541
    15  H    0.110191
    16  H    0.131319
    17  H    0.114196
    18  H    0.091942
    19  H    0.111791
    20  H    0.118705
    21  H    0.135152
    22  H    0.105713
    23  H    0.105320
 Sum of Mulliken atomic charges =   0.00000

 Dipole moment (field-independent basis, Debye):
    X=             -0.3967    Y=              2.6470    Z=              1.5128  Tot=              3.0745
 Quadrupole moment (field-independent basis, Debye-Ang):
   XX=            -56.4859   YY=            -60.5006   ZZ=            -57.1835
   XY=              4.7443   XZ=              2.2258   YZ=             -2.4259

 Normal termination of Gaussian 09 at Wed Mar  2 03:46:21 2016.
