 Gaussian 09, Revision A.01,
 Gaussian 09:  EM64L-G09RevA.01  8-May-2009

 -------------
 # mp2/cc-pVTZ
 -------------

 ---------------------------------
 fluorocyclohexane-ax_single_point
 ---------------------------------
 Symbolic Z-matrix:
 Charge =  0 Multiplicity = 1

                         Standard orientation:
 ---------------------------------------------------------------------
 Center     Atomic      Atomic             Coordinates (Angstroms)
 Number     Number       Type             X           Y           Z
 ---------------------------------------------------------------------
      1          6           0        0.343423    1.273504    0.580480
      2          6           0        1.167931    0.000005    0.412509
      3          6           0        0.343429   -1.273500    0.580497
      4          6           0       -0.923843   -1.268439   -0.289544
      5          6           0       -1.761219   -0.000010   -0.057500
      6          6           0       -0.923859    1.268433   -0.289532
      7          9           0        1.722169    0.000003   -0.900630
      8          1           0        0.974172   -2.139743    0.351089
      9          1           0        0.067138   -1.351437    1.641774
     10          1           0       -1.518704   -2.164926   -0.078098
     11          1           0       -2.144631    0.000004    0.974056
     12          1           0       -2.638180   -0.000021   -0.715996
     13          1           0        2.030306    0.000006    1.089099
     14          1           0       -1.518727    2.164916   -0.078086
     15          1           0       -0.633676    1.324114   -1.346226
     16          1           0        0.067102    1.351445    1.641750
     17          1           0        0.974161    2.139756    0.351083
     18          1           0       -0.633662   -1.324096   -1.346239
 ---------------------------------------------------------------------

 SCF Done:  E(RHF) =  -333.180334099     A.U. after   11 cycles
 E2 =    -0.1281336746D+01 EUMP2 =    -0.33446167084463D+03

 The electronic state is 1-A.
 Alpha  occ. eigenvalues --  -26.25549 -11.30517 -11.22662 -11.22661 -11.22163
 Alpha  occ. eigenvalues --  -11.22108 -11.22076  -1.56027  -1.11510  -1.01071
 Alpha  occ. eigenvalues --   -1.00533  -0.84374  -0.83789  -0.75561  -0.69388
 Alpha  occ. eigenvalues --   -0.65873  -0.64833  -0.62574  -0.59264  -0.58079
 Alpha  occ. eigenvalues --   -0.54172  -0.53176  -0.51801  -0.51656  -0.48463
 Alpha  occ. eigenvalues --   -0.46226  -0.43704  -0.43636
 Alpha virt. eigenvalues --    0.13383   0.15779   0.16755   0.17162   0.20082
 Alpha virt. eigenvalues --    0.20568   0.21130   0.22040   0.23190   0.23413
 Alpha virt. eigenvalues --    0.25601   0.29042   0.31225   0.32696   0.33186

 Mulliken atomic charges:
              1
     1  C   -0.206809
     2  C    0.221724
     3  C   -0.206813
     4  C   -0.193926
     5  C   -0.199015
     6  C   -0.193926
     7  F   -0.351258
     8  H    0.112877
     9  H    0.090475
    10  H    0.109779
    11  H    0.084083
    12  H    0.110428
    13  H    0.105166
    14  H    0.109779
    15  H    0.102042
    16  H    0.090470
    17  H    0.112878
    18  H    0.102046
 Sum of Mulliken atomic charges =   0.00000

 Dipole moment (field-independent basis, Debye):
    X=             -1.1077    Y=              0.0000    Z=              1.7413  Tot=              2.0638
 Quadrupole moment (field-independent basis, Debye-Ang):
   XX=            -46.3707   YY=            -43.0714   ZZ=            -44.4700
   XY=              0.0000   XZ=              3.2207   YZ=              0.0000

 Normal termination of Gaussian 09 at Wed Mar  2 04:54:53 2016.
