 Gaussian 09, Revision A.01,
 Gaussian 09:  EM64L-G09RevA.01  8-May-2009

 -------------
 # mp2/cc-pVTZ
 -------------

 ---------------------------------
 fluorocyclohexane-eq_single_point
 ---------------------------------
 Symbolic Z-matrix:
 Charge =  0 Multiplicity = 1

                         Standard orientation:
 ---------------------------------------------------------------------
 Center     Atomic      Atomic             Coordinates (Angstroms)
 Number     Number       Type             X           Y           Z
 ---------------------------------------------------------------------
      1          6           0        0.346317   -1.266112   -0.175090
      2          6           0        1.027134   -0.000003    0.328458
      3          6           0        0.346343    1.266112   -0.175083
      4          6           0       -1.145038    1.270055    0.209899
      5          6           0       -1.858273    0.000003   -0.282343
      6          6           0       -1.145062   -1.270041    0.209897
      7          9           0        2.378119   -0.000016   -0.102556
      8          1           0        0.858751    2.146361    0.228842
      9          1           0        0.451348    1.301697   -1.267644
     10          1           0       -1.628823    2.164896   -0.198341
     11          1           0       -1.880061    0.000004   -1.381478
     12          1           0       -2.902882    0.000017    0.051617
     13          1           0        1.068848   -0.000015    1.426137
     14          1           0       -1.628856   -2.164900   -0.198298
     15          1           0       -1.239956   -1.338088    1.303279
     16          1           0        0.451311   -1.301671   -1.267653
     17          1           0        0.858701   -2.146370    0.228837
     18          1           0       -1.239965    1.338121    1.303274
 ---------------------------------------------------------------------

 SCF Done:  E(RHF) =  -333.180591846     A.U. after   11 cycles
 E2 =    -0.1281211965D+01 EUMP2 =    -0.33446180381081D+03

 The electronic state is 1-A.
 Alpha  occ. eigenvalues --  -26.25645 -11.30404 -11.22958 -11.22953 -11.22655
 Alpha  occ. eigenvalues --  -11.22589 -11.22587  -1.56164  -1.12161  -1.01328
 Alpha  occ. eigenvalues --   -1.00508  -0.84740  -0.83628  -0.77134  -0.67820
 Alpha  occ. eigenvalues --   -0.67118  -0.64730  -0.62702  -0.60117  -0.58871
 Alpha  occ. eigenvalues --   -0.55720  -0.53730  -0.50533  -0.49419  -0.49085
 Alpha  occ. eigenvalues --   -0.46944  -0.45221  -0.43858
 Alpha virt. eigenvalues --    0.13442   0.14827   0.16070   0.17380   0.20380
 Alpha virt. eigenvalues --    0.20923   0.21237   0.22017   0.22195   0.24386
 Alpha virt. eigenvalues --    0.24506   0.28959   0.31271   0.33412   0.34310

 Mulliken atomic charges:
              1
     1  C   -0.211118
     2  C    0.251861
     3  C   -0.211118
     4  C   -0.212585
     5  C   -0.191651
     6  C   -0.212579
     7  F   -0.331052
     8  H    0.116711
     9  H    0.095035
    10  H    0.114221
    11  H    0.091278
    12  H    0.111770
    13  H    0.079788
    14  H    0.114222
    15  H    0.091734
    16  H    0.095033
    17  H    0.116713
    18  H    0.091739
 Sum of Mulliken atomic charges =   0.00000

 Dipole moment (field-independent basis, Debye):
    X=             -2.3622    Y=              0.0000    Z=              0.4800  Tot=              2.4105
 Quadrupole moment (field-independent basis, Debye-Ang):
   XX=            -51.1852   YY=            -42.9151   ZZ=            -42.8349
   XY=              0.0001   XZ=              1.0436   YZ=             -0.0001

 Normal termination of Gaussian 09 at Wed Mar  2 05:05:22 2016.
