 Gaussian 09, Revision A.01,
 Gaussian 09:  EM64L-G09RevA.01  8-May-2009

 -------------
 # mp2/cc-pVTZ
 -------------

 ----------------------------------
 hydroxycyclohexane-eq_single_point
 ----------------------------------
 Symbolic Z-matrix:
 Charge =  0 Multiplicity = 1

                         Standard orientation:
 ---------------------------------------------------------------------
 Center     Atomic      Atomic             Coordinates (Angstroms)
 Number     Number       Type             X           Y           Z
 ---------------------------------------------------------------------
      1          6           0        1.035071   -0.014081    0.320333
      2          6           0        0.319224   -1.270106   -0.174047
      3          6           0       -1.168671   -1.259221    0.214971
      4          6           0       -1.874214    0.014960   -0.277021
      5          6           0       -1.147369    1.279678    0.207963
      6          6           0        0.340139    1.256113   -0.185511
      7          8           0        2.394387   -0.097774   -0.128278
      8          1           0       -1.664368   -2.149816   -0.189258
      9          1           0       -1.260891   -1.323245    1.309044
     10          1           0       -2.917771    0.025674    0.060918
     11          1           0       -1.900339    0.012600   -1.376267
     12          1           0       -1.234231    1.349827    1.302057
     13          1           0       -1.627275    2.177783   -0.198967
     14          1           0        0.422501   -1.312989   -1.266933
     15          1           0        0.823552   -2.155767    0.228680
     16          1           0        0.852239    2.145260    0.208907
     17          1           0        0.440335    1.287870   -1.279155
     18          1           0        1.017817   -0.011585    1.424080
     19          1           0        2.868254    0.692517    0.162998
 ---------------------------------------------------------------------

 SCF Done:  E(RHF) =  -309.172444230     A.U. after   11 cycles
 E2 =    -0.1277191673D+01 EUMP2 =    -0.31044963590314D+03

 The electronic state is 1-A.
 Alpha  occ. eigenvalues --  -20.54651 -11.27382 -11.22260 -11.21976 -11.21966
 Alpha  occ. eigenvalues --  -11.21913 -11.21352  -1.34794  -1.10720  -1.00367
 Alpha  occ. eigenvalues --   -0.98875  -0.83841  -0.82099  -0.75631  -0.68071
 Alpha  occ. eigenvalues --   -0.64619  -0.61035  -0.60465  -0.58380  -0.54422
 Alpha  occ. eigenvalues --   -0.52752  -0.52460  -0.48841  -0.48377  -0.46062
 Alpha  occ. eigenvalues --   -0.45712  -0.43452  -0.41915
 Alpha virt. eigenvalues --    0.13752   0.14828   0.15678   0.16831   0.19284
 Alpha virt. eigenvalues --    0.20872   0.21650   0.22484   0.22774   0.23658
 Alpha virt. eigenvalues --    0.24780   0.25235   0.29926   0.33323   0.34855

 Mulliken atomic charges:
              1
     1  C    0.147012
     2  C   -0.190401
     3  C   -0.209130
     4  C   -0.189633
     5  C   -0.208753
     6  C   -0.204214
     7  O   -0.420783
     8  H    0.110864
     9  H    0.087309
    10  H    0.108708
    11  H    0.088777
    12  H    0.087926
    13  H    0.110709
    14  H    0.092382
    15  H    0.113592
    16  H    0.093011
    17  H    0.095419
    18  H    0.072502
    19  H    0.214703
 Sum of Mulliken atomic charges =   0.00000

 Dipole moment (field-independent basis, Debye):
    X=             -0.8931    Y=              1.2188    Z=              0.7985  Tot=              1.7090
 Quadrupole moment (field-independent basis, Debye-Ang):
   XX=            -47.1529   YY=            -44.3403   ZZ=            -44.9885
   XY=              4.1181   XZ=              2.2755   YZ=              0.2678

 Normal termination of Gaussian 09 at Wed Mar  2 05:29:57 2016.
