 Gaussian 09, Revision A.01,
 Gaussian 09:  EM64L-G09RevA.01  8-May-2009

 -------------
 # mp2/cc-pVTZ
 -------------

 ----------------------------------
 hydroxycyclohexane-ax_single_point
 ----------------------------------
 Symbolic Z-matrix:
 Charge =  0 Multiplicity = 1

                         Standard orientation:
 ---------------------------------------------------------------------
 Center     Atomic      Atomic             Coordinates (Angstroms)
 Number     Number       Type             X           Y           Z
 ---------------------------------------------------------------------
      1          6           0        1.161992   -0.029986    0.428402
      2          6           0        0.337308    1.255894    0.606007
      3          6           0       -0.906441    1.286427   -0.296192
      4          6           0       -1.773091    0.032559   -0.093969
      5          6           0       -0.953643   -1.250299   -0.309636
      6          6           0        0.291067   -1.280141    0.591760
      7          8           0        1.750727   -0.104459   -0.883007
      8          1           0       -1.489957    2.192765   -0.092474
      9          1           0       -0.591388    1.341217   -1.345992
     10          1           0       -2.633239    0.053712   -0.774569
     11          1           0       -2.182688    0.035933    0.927724
     12          1           0       -0.638037   -1.308865   -1.358395
     13          1           0       -1.572040   -2.134874   -0.113374
     14          1           0        0.031590    1.321452    1.660299
     15          1           0        0.974150    2.131986    0.417198
     16          1           0        0.901587   -2.165492    0.381089
     17          1           0       -0.016658   -1.343369    1.644873
     18          1           0        1.965656   -0.052100    1.180905
     19          1           0        2.302052    0.676579   -1.021463
 ---------------------------------------------------------------------

 SCF Done:  E(RHF) =  -309.171426734     A.U. after   12 cycles
 E2 =    -0.1277786416D+01 EUMP2 =    -0.31044921315040D+03

 The electronic state is 1-A.
 Alpha  occ. eigenvalues --  -20.54669 -11.27510 -11.22056 -11.21556 -11.21441
 Alpha  occ. eigenvalues --  -11.21428 -11.21120  -1.34798  -1.10027  -1.00095
 Alpha  occ. eigenvalues --   -0.98914  -0.83391  -0.82301  -0.74569  -0.67507
 Alpha  occ. eigenvalues --   -0.65110  -0.61424  -0.60294  -0.56231  -0.55110
 Alpha  occ. eigenvalues --   -0.52333  -0.51745  -0.50237  -0.48032  -0.46419
 Alpha  occ. eigenvalues --   -0.45049  -0.42601  -0.41464
 Alpha virt. eigenvalues --    0.13231   0.15795   0.16210   0.17371   0.19512
 Alpha virt. eigenvalues --    0.20476   0.21121   0.22001   0.22877   0.23878
 Alpha virt. eigenvalues --    0.24826   0.25988   0.31442   0.33025   0.33635

 Mulliken atomic charges:
              1
     1  C    0.112129
     2  C   -0.216467
     3  C   -0.176681
     4  C   -0.198304
     5  C   -0.189065
     6  C   -0.191403
     7  O   -0.439321
     8  H    0.107827
     9  H    0.089892
    10  H    0.107309
    11  H    0.082133
    12  H    0.099794
    13  H    0.105853
    14  H    0.092202
    15  H    0.096908
    16  H    0.108520
    17  H    0.089116
    18  H    0.100883
    19  H    0.218675
 Sum of Mulliken atomic charges =   0.00000

 Dipole moment (field-independent basis, Debye):
    X=              0.1136    Y=              1.1823    Z=              0.9806  Tot=              1.5403
 Quadrupole moment (field-independent basis, Debye-Ang):
   XX=            -44.0995   YY=            -44.5777   ZZ=            -45.7812
   XY=              3.2318   XZ=              0.8144   YZ=             -1.5485

 Normal termination of Gaussian 09 at Wed Mar  2 05:18:06 2016.
