 Gaussian 09, Revision A.01,
 Gaussian 09:  EM64L-G09RevA.01  8-May-2009

 -------------
 # mp2/cc-pVTZ
 -------------

 ------------------------------------
 isopropylcyclohexane-ax_single_point
 ------------------------------------
 Symbolic Z-matrix:
 Charge =  0 Multiplicity = 1

                         Standard orientation:
 ---------------------------------------------------------------------
 Center     Atomic      Atomic             Coordinates (Angstroms)
 Number     Number       Type             X           Y           Z
 ---------------------------------------------------------------------
      1          6           0       -0.327114   -0.000127    0.773233
      2          6           0        0.583699   -1.252508    0.760381
      3          6           0        1.563635   -1.271595   -0.426070
      4          6           0        2.426961    0.000066   -0.459137
      5          6           0        1.563501    1.271641   -0.425924
      6          6           0        0.583560    1.252342    0.760515
      7          6           0       -1.417732   -0.000053   -0.339440
      8          6           0       -2.307847   -1.254670   -0.273043
      9          6           0       -2.307456    1.254838   -0.273081
     10          1           0        2.204419   -2.160242   -0.363541
     11          1           0        1.008004   -1.360586   -1.369926
     12          1           0        3.074356    0.000151   -1.345138
     13          1           0        3.094556    0.000051    0.415383
     14          1           0        1.007884    1.360677   -1.369782
     15          1           0        2.204195    2.160346   -0.363293
     16          1           0        1.167887   -1.253319    1.692041
     17          1           0       -0.010198   -2.172094    0.778430
     18          1           0       -0.010462    2.171853    0.778623
     19          1           0        1.167724    1.253147    1.692190
     20          1           0       -0.873468   -0.000189    1.729814
     21          1           0       -0.923418   -0.000144   -1.320800
     22          1           0       -3.107813    1.198304   -1.019290
     23          1           0       -2.780760    1.347227    0.713299
     24          1           0       -1.750039    2.176339   -0.463379
     25          1           0       -3.108255   -1.197837   -1.019175
     26          1           0       -1.750756   -2.176346   -0.463431
     27          1           0       -2.781095   -1.346942    0.713376
 ---------------------------------------------------------------------

 SCF Done:  E(RHF) =  -351.418604961     A.U. after   11 cycles
 E2 =    -0.1577280049D+01 EUMP2 =    -0.35299588501056D+03

 The electronic state is 1-A.
 Alpha  occ. eigenvalues --  -11.22312 -11.22000 -11.21402 -11.21357 -11.21319
 Alpha  occ. eigenvalues --  -11.21165 -11.21162 -11.20825 -11.20823  -1.11802
 Alpha  occ. eigenvalues --   -1.05747  -0.99543  -0.97910  -0.92138  -0.83766
 Alpha  occ. eigenvalues --   -0.82278  -0.78694  -0.71356  -0.65138  -0.62368
 Alpha  occ. eigenvalues --   -0.60017  -0.59897  -0.58338  -0.54313  -0.54157
 Alpha  occ. eigenvalues --   -0.53056  -0.52293  -0.51803  -0.50139  -0.47832
 Alpha  occ. eigenvalues --   -0.47256  -0.46461  -0.45576  -0.42544  -0.41867
 Alpha  occ. eigenvalues --   -0.41321
 Alpha virt. eigenvalues --    0.13700   0.15020   0.15741   0.16445   0.18769
 Alpha virt. eigenvalues --    0.19178   0.19354   0.19861   0.21231   0.22288
 Alpha virt. eigenvalues --    0.22792   0.23452   0.25303   0.25671   0.26007

 Mulliken atomic charges:
              1
     1  C   -0.079113
     2  C   -0.227971
     3  C   -0.200587
     4  C   -0.188805
     5  C   -0.200585
     6  C   -0.227992
     7  C   -0.083333
     8  C   -0.310404
     9  C   -0.310412
    10  H    0.111296
    11  H    0.090537
    12  H    0.107063
    13  H    0.084113
    14  H    0.090537
    15  H    0.111295
    16  H    0.102023
    17  H    0.114849
    18  H    0.114848
    19  H    0.102032
    20  H    0.108626
    21  H    0.105308
    22  H    0.101663
    23  H    0.090459
    24  H    0.101217
    25  H    0.101661
    26  H    0.101222
    27  H    0.090454
 Sum of Mulliken atomic charges =   0.00000

 Dipole moment (field-independent basis, Debye):
    X=              0.0727    Y=              0.0000    Z=             -0.0382  Tot=              0.0822
 Quadrupole moment (field-independent basis, Debye-Ang):
   XX=            -61.6220   YY=            -61.4625   ZZ=            -60.4018
   XY=             -0.0001   XZ=              0.3051   YZ=              0.0001

 Normal termination of Gaussian 09 at Wed Mar  2 06:08:07 2016.
