 Gaussian 09, Revision A.01,
 Gaussian 09:  EM64L-G09RevA.01  8-May-2009

 -------------
 # mp2/cc-pVTZ
 -------------

 ------------------------------------
 isopropylcyclohexane-eq_single_point
 ------------------------------------
 Symbolic Z-matrix:
 Charge =  0 Multiplicity = 1

                         Standard orientation:
 ---------------------------------------------------------------------
 Center     Atomic      Atomic             Coordinates (Angstroms)
 Number     Number       Type             X           Y           Z
 ---------------------------------------------------------------------
      1          6           0       -0.297561   -0.000048    0.200575
      2          6           0        0.482052    1.261014   -0.233315
      3          6           0        1.941849    1.261291    0.250410
      4          6           0        2.692480    0.000026   -0.195655
      5          6           0        1.941888   -1.261301    0.250285
      6          6           0        0.482086   -1.261020   -0.233441
      7          6           0       -1.763000   -0.000039   -0.318149
      8          6           0       -2.543109   -1.254271    0.117296
      9          6           0       -2.543011    1.254328    0.117073
     10          1           0        2.453050    2.161221   -0.114199
     11          1           0        1.957041    1.318926    1.348888
     12          1           0        3.714108    0.000029    0.204709
     13          1           0        2.784994    0.000082   -1.291845
     14          1           0        1.957082   -1.319043    1.348758
     15          1           0        2.453115   -2.161180   -0.114411
     16          1           0        0.466832    1.323305   -1.332855
     17          1           0       -0.015569    2.163719    0.135593
     18          1           0       -0.015497   -2.163771    0.135402
     19          1           0        0.466868   -1.323222   -1.332986
     20          1           0       -0.344407   -0.000094    1.303628
     21          1           0       -1.717656   -0.000128   -1.419051
     22          1           0       -3.582426    1.197330   -0.225035
     23          1           0       -2.560763    1.343790    1.211247
     24          1           0       -2.117635    2.176691   -0.287680
     25          1           0       -3.582564   -1.197174   -0.224669
     26          1           0       -2.117906   -2.176723   -0.287435
     27          1           0       -2.560716   -1.343635    1.211482
 ---------------------------------------------------------------------

 SCF Done:  E(RHF) =  -351.422580845     A.U. after   11 cycles
 E2 =    -0.1575339188D+01 EUMP2 =    -0.35299792003329D+03

 The electronic state is 1-A.
 Alpha  occ. eigenvalues --  -11.22385 -11.21992 -11.21374 -11.21356 -11.21262
 Alpha  occ. eigenvalues --  -11.21180 -11.21176 -11.20793 -11.20791  -1.11773
 Alpha  occ. eigenvalues --   -1.06123  -0.99605  -0.97739  -0.92178  -0.83939
 Alpha  occ. eigenvalues --   -0.82314  -0.76423  -0.74509  -0.64624  -0.61659
 Alpha  occ. eigenvalues --   -0.59361  -0.59253  -0.57943  -0.56784  -0.55638
 Alpha  occ. eigenvalues --   -0.52911  -0.52194  -0.49606  -0.48621  -0.47803
 Alpha  occ. eigenvalues --   -0.47672  -0.46910  -0.45493  -0.44226  -0.41425
 Alpha  occ. eigenvalues --   -0.41312
 Alpha virt. eigenvalues --    0.14063   0.14918   0.15481   0.16334   0.18703
 Alpha virt. eigenvalues --    0.18945   0.19489   0.20039   0.21476   0.21775
 Alpha virt. eigenvalues --    0.22954   0.23685   0.24661   0.24975   0.25835

 Mulliken atomic charges:
              1
     1  C   -0.064124
     2  C   -0.207535
     3  C   -0.197800
     4  C   -0.184795
     5  C   -0.197800
     6  C   -0.207527
     7  C   -0.060452
     8  C   -0.314830
     9  C   -0.314833
    10  H    0.106754
    11  H    0.085731
    12  H    0.106322
    13  H    0.084547
    14  H    0.085732
    15  H    0.106754
    16  H    0.086894
    17  H    0.111093
    18  H    0.111091
    19  H    0.086895
    20  H    0.095099
    21  H    0.097777
    22  H    0.101602
    23  H    0.088924
    24  H    0.101977
    25  H    0.101601
    26  H    0.101978
    27  H    0.088925
 Sum of Mulliken atomic charges =   0.00000

 Dipole moment (field-independent basis, Debye):
    X=              0.0575    Y=              0.0000    Z=             -0.0406  Tot=              0.0704
 Quadrupole moment (field-independent basis, Debye-Ang):
   XX=            -61.8374   YY=            -61.4055   ZZ=            -60.2851
   XY=              0.0000   XZ=              0.1872   YZ=              0.0000

 Normal termination of Gaussian 09 at Wed Mar  2 06:44:18 2016.
