 Gaussian 09, Revision A.01,
 Gaussian 09:  EM64L-G09RevA.01  8-May-2009

 -------------
 # mp2/cc-pVTZ
 -------------

 ---------------------------
 Me3SiO-cycl-ax_single_point
 ---------------------------
 Symbolic Z-matrix:
 Charge =  0 Multiplicity = 1

                         Standard orientation:
 ---------------------------------------------------------------------
 Center     Atomic      Atomic             Coordinates (Angstroms)
 Number     Number       Type             X           Y           Z
 ---------------------------------------------------------------------
      1          6           0        0.702768   -0.049031   -0.826855
      2          6           0        1.535863    1.241521   -0.773847
      3          6           0        2.447777    1.289938    0.462493
      4          6           0        3.346577    0.044966    0.544335
      5          6           0        2.514260   -1.247248    0.507674
      6          6           0        1.602670   -1.290883   -0.729149
      7          8           0       -0.230675   -0.060993    0.263596
      8         14           0       -1.902540   -0.000998    0.128200
      9          6           0       -2.534056   -1.474511   -0.874039
     10          6           0       -2.531373   -0.071880    1.898323
     11          6           0       -2.444200    1.601883   -0.716079
     12          1           0        1.824335    1.347630    1.363342
     13          1           0        3.058440    2.200969    0.438453
     14          1           0        4.049777    0.048439   -0.302401
     15          1           0        3.956439    0.077145    1.455791
     16          1           0        3.171670   -2.125414    0.515669
     17          1           0        1.893258   -1.305432    1.410135
     18          1           0        0.863277    2.107026   -0.793966
     19          1           0        2.148540    1.290441   -1.685912
     20          1           0        2.217825   -1.340151   -1.639440
     21          1           0        0.974994   -2.189592   -0.717196
     22          1           0        0.158777   -0.081142   -1.783755
     23          1           0       -3.626200   -0.026676    1.932884
     24          1           0       -2.215649   -0.999639    2.387882
     25          1           0       -2.139714    0.765973    2.485474
     26          1           0       -3.537213    1.653636   -0.791981
     27          1           0       -2.106034    2.478550   -0.152199
     28          1           0       -2.042051    1.682605   -1.732846
     29          1           0       -3.627087   -1.448467   -0.961385
     30          1           0       -2.125556   -1.480261   -1.891464
     31          1           0       -2.258585   -2.422251   -0.397793
 ---------------------------------------------------------------------

 SCF Done:  E(RHF) =  -716.508383804     A.U. after   12 cycles
 E2 =    -0.1928037449D+01 EUMP2 =    -0.71843642125363D+03

 The electronic state is 1-A.
 Alpha  occ. eigenvalues --  -68.77264 -20.52712 -11.27839 -11.21454 -11.21416
 Alpha  occ. eigenvalues --  -11.21238 -11.21093 -11.21057 -11.19718 -11.19715
 Alpha  occ. eigenvalues --  -11.19408  -6.11574  -4.22275  -4.22225  -4.22208
 Alpha  occ. eigenvalues --   -1.32665  -1.09737  -0.99773  -0.98851  -0.95696
 Alpha  occ. eigenvalues --   -0.92056  -0.91951  -0.82907  -0.82148  -0.74543
 Alpha  occ. eigenvalues --   -0.68143  -0.64358  -0.61335  -0.60691  -0.58378
 Alpha  occ. eigenvalues --   -0.56593  -0.56012  -0.55607  -0.54620  -0.54195
 Alpha  occ. eigenvalues --   -0.53272  -0.53184  -0.52708  -0.51979  -0.51285
 Alpha  occ. eigenvalues --   -0.48865  -0.47866  -0.46295  -0.45110  -0.42751
 Alpha  occ. eigenvalues --   -0.42510  -0.41436  -0.39758
 Alpha virt. eigenvalues --    0.12134   0.14718   0.15495   0.15980   0.17783
 Alpha virt. eigenvalues --    0.18239   0.18271   0.19093   0.19796   0.20710
 Alpha virt. eigenvalues --    0.21540   0.22348   0.22780   0.24097   0.24171

 Mulliken atomic charges:
              1
     1  C    0.106151
     2  C   -0.190200
     3  C   -0.187542
     4  C   -0.197835
     5  C   -0.188505
     6  C   -0.185290
     7  O   -0.494147
     8  Si   0.582184
     9  C   -0.430888
    10  C   -0.404402
    11  C   -0.434978
    12  H    0.095452
    13  H    0.106567
    14  H    0.080951
    15  H    0.106294
    16  H    0.106327
    17  H    0.096237
    18  H    0.108268
    19  H    0.094891
    20  H    0.092378
    21  H    0.105860
    22  H    0.103479
    23  H    0.094573
    24  H    0.103318
    25  H    0.103543
    26  H    0.107864
    27  H    0.106474
    28  H    0.100622
    29  H    0.105465
    30  H    0.100799
    31  H    0.106092
 Sum of Mulliken atomic charges =   0.00000

 Dipole moment (field-independent basis, Debye):
    X=             -0.2541    Y=              0.0481    Z=             -0.8878  Tot=              0.9247
 Quadrupole moment (field-independent basis, Debye-Ang):
   XX=            -77.3412   YY=            -79.7818   ZZ=            -79.2818
   XY=             -0.0505   XZ=             -0.7632   YZ=              0.0759

 Normal termination of Gaussian 09 at Thu Mar  3 15:51:25 2016.
