 Gaussian 09, Revision A.01,
 Gaussian 09:  EM64L-G09RevA.01  8-May-2009

 -------------
 # mp2/cc-pVTZ
 -------------

 ---------------------------
 Me3SiO-cycl-eq_single_point
 ---------------------------
 Symbolic Z-matrix:
 Charge =  0 Multiplicity = 1

                         Standard orientation:
 ---------------------------------------------------------------------
 Center     Atomic      Atomic             Coordinates (Angstroms)
 Number     Number       Type             X           Y           Z
 ---------------------------------------------------------------------
      1          6           0        0.728609   -0.238141    0.103141
      2          6           0        1.291443    1.125057   -0.324928
      3          6           0        2.710248    1.352374    0.225651
      4          6           0        3.660674    0.210935   -0.168274
      5          6           0        3.094496   -1.154618    0.252142
      6          6           0        1.676572   -1.372058   -0.300473
      7          8           0       -0.544196   -0.490616   -0.491129
      8         14           0       -2.069686   -0.005793    0.014278
      9          6           0       -2.486246    1.716761   -0.640805
     10          6           0       -3.243802   -1.274051   -0.728128
     11          6           0       -2.171807   -0.005656    1.902019
     12          1           0        2.668377    1.424715    1.322593
     13          1           0        3.098292    2.314012   -0.132023
     14          1           0        3.806422    0.221978   -1.258221
     15          1           0        4.648875    0.368341    0.281750
     16          1           0        3.754456   -1.962481   -0.086765
     17          1           0        3.072279   -1.213765    1.350476
     18          1           0        0.621536    1.926828    0.008812
     19          1           0        1.303835    1.158239   -1.423114
     20          1           0        1.702566   -1.417379   -1.397930
     21          1           0        1.263231   -2.326352    0.046489
     22          1           0        0.628677   -0.246475    1.201644
     23          1           0       -4.290088   -1.039302   -0.499009
     24          1           0       -3.136980   -1.305078   -1.818407
     25          1           0       -3.028596   -2.277731   -0.344942
     26          1           0       -3.189340    0.243718    2.227203
     27          1           0       -1.922921   -0.988421    2.319025
     28          1           0       -1.497609    0.731869    2.352921
     29          1           0       -3.527336    1.979325   -0.414614
     30          1           0       -1.847053    2.490197   -0.200002
     31          1           0       -2.360572    1.760165   -1.728824
 ---------------------------------------------------------------------

 SCF Done:  E(RHF) =  -716.508345539     A.U. after   12 cycles
 E2 =    -0.1926992025D+01 EUMP2 =    -0.71843533756402D+03

 The electronic state is 1-A.
 Alpha  occ. eigenvalues --  -68.77216 -20.52652 -11.27673 -11.22034 -11.21836
 Alpha  occ. eigenvalues --  -11.21764 -11.21600 -11.21186 -11.19821 -11.19472
 Alpha  occ. eigenvalues --  -11.19202  -6.11512  -4.22219  -4.22163  -4.22146
 Alpha  occ. eigenvalues --   -1.32627  -1.10458  -1.00137  -0.98878  -0.95574
 Alpha  occ. eigenvalues --   -0.92062  -0.91705  -0.83430  -0.82077  -0.75530
 Alpha  occ. eigenvalues --   -0.68548  -0.64584  -0.60927  -0.60326  -0.58778
 Alpha  occ. eigenvalues --   -0.57051  -0.56203  -0.55661  -0.55041  -0.54530
 Alpha  occ. eigenvalues --   -0.53515  -0.52842  -0.52662  -0.52294  -0.51275
 Alpha  occ. eigenvalues --   -0.48296  -0.47137  -0.46337  -0.45756  -0.43516
 Alpha  occ. eigenvalues --   -0.42731  -0.41647  -0.39692
 Alpha virt. eigenvalues --    0.12418   0.14435   0.15072   0.15780   0.17803
 Alpha virt. eigenvalues --    0.18289   0.18369   0.19747   0.19970   0.20400
 Alpha virt. eigenvalues --    0.21415   0.22106   0.23130   0.23729   0.23890

 Mulliken atomic charges:
              1
     1  C    0.165010
     2  C   -0.205534
     3  C   -0.203599
     4  C   -0.188328
     5  C   -0.209265
     6  C   -0.189295
     7  O   -0.477288
     8  Si   0.583807
     9  C   -0.427714
    10  C   -0.400986
    11  C   -0.445303
    12  H    0.088835
    13  H    0.110461
    14  H    0.087361
    15  H    0.108320
    16  H    0.109457
    17  H    0.087081
    18  H    0.106089
    19  H    0.096241
    20  H    0.092092
    21  H    0.106200
    22  H    0.078902
    23  H    0.093093
    24  H    0.103869
    25  H    0.100926
    26  H    0.109155
    27  H    0.107631
    28  H    0.101644
    29  H    0.102837
    30  H    0.101450
    31  H    0.106851
 Sum of Mulliken atomic charges =   0.00000

 Dipole moment (field-independent basis, Debye):
    X=              0.3770    Y=              0.5564    Z=              0.8220  Tot=              1.0618
 Quadrupole moment (field-independent basis, Debye-Ang):
   XX=            -76.9511   YY=            -80.1212   ZZ=            -79.7296
   XY=             -0.5790   XZ=             -0.8616   YZ=             -0.6450

 Normal termination of Gaussian 09 at Thu Mar  3 21:32:49 2016.
