 Gaussian 09, Revision A.01,
 Gaussian 09:  EM64L-G09RevA.01  8-May-2009

 -------------
 # mp2/cc-pVTZ
 -------------

 -----------------------------------------
 me_cyclohexanecarboxylate-eq_single_point
 -----------------------------------------
 Symbolic Z-matrix:
 Charge =  0 Multiplicity = 1

                         Standard orientation:
 ---------------------------------------------------------------------
 Center     Atomic      Atomic             Coordinates (Angstroms)
 Number     Number       Type             X           Y           Z
 ---------------------------------------------------------------------
      1          6           0       -0.680747    1.176911    0.424548
      2          6           0       -0.052756   -0.030210   -0.318139
      3          6           0       -0.896264   -1.302142   -0.105533
      4          6           0       -2.357525   -1.081080   -0.525508
      5          6           0       -2.982747    0.121263    0.198640
      6          6           0       -2.141855    1.391855    0.000983
      7          6           0        1.374313   -0.228176    0.156122
      8          8           0        2.264543    0.368258   -0.673785
      9          6           0        3.647651    0.287073   -0.278650
     10          8           0        1.706889   -0.816984    1.166409
     11          1           0       -0.461049   -2.136023   -0.669599
     12          1           0       -0.846890   -1.581477    0.953882
     13          1           0       -2.939445   -1.989111   -0.326184
     14          1           0       -2.404499   -0.914074   -1.611675
     15          1           0       -3.054236   -0.101005    1.273124
     16          1           0       -4.007564    0.286753   -0.155655
     17          1           0       -0.015067    0.209910   -1.387980
     18          1           0       -2.570717    2.226060    0.569610
     19          1           0       -2.172104    1.687022   -1.057912
     20          1           0       -0.633022    0.986689    1.505108
     21          1           0       -0.091219    2.080647    0.229702
     22          1           0        4.201948    0.817937   -1.052290
     23          1           0        3.967342   -0.756204   -0.221490
     24          1           0        3.794645    0.759716    0.695593
 ---------------------------------------------------------------------

 SCF Done:  E(RHF) =  -461.008536522     A.U. after   13 cycles
 E2 =    -0.1824203203D+01 EUMP2 =    -0.46283273972538D+03

 The electronic state is 1-A.
 Alpha  occ. eigenvalues --  -20.59867 -20.53620 -11.37143 -11.28355 -11.24252
 Alpha  occ. eigenvalues --  -11.23024 -11.22445 -11.22323 -11.22209 -11.22110
 Alpha  occ. eigenvalues --   -1.44889  -1.34737  -1.12419  -1.03201  -1.00730
 Alpha  occ. eigenvalues --   -0.96393  -0.85841  -0.83768  -0.77541  -0.75003
 Alpha  occ. eigenvalues --   -0.69727  -0.66929  -0.66317  -0.63540  -0.60542
 Alpha  occ. eigenvalues --   -0.60226  -0.59940  -0.55686  -0.54575  -0.53119
 Alpha  occ. eigenvalues --   -0.52249  -0.50813  -0.49252  -0.48864  -0.46396
 Alpha  occ. eigenvalues --   -0.45889  -0.45404  -0.43421  -0.42350
 Alpha virt. eigenvalues --    0.13691   0.15171   0.15599   0.16316   0.17495
 Alpha virt. eigenvalues --    0.18129   0.20413   0.21080   0.21512   0.22051
 Alpha virt. eigenvalues --    0.22606   0.23191   0.23443   0.24834   0.25238

 Mulliken atomic charges:
              1
     1  C   -0.207196
     2  C   -0.060248
     3  C   -0.195072
     4  C   -0.203866
     5  C   -0.189521
     6  C   -0.205239
     7  C    0.393936
     8  O   -0.321061
     9  C   -0.066543
    10  O   -0.427980
    11  H    0.111066
    12  H    0.114824
    13  H    0.112467
    14  H    0.087042
    15  H    0.090651
    16  H    0.110004
    17  H    0.130680
    18  H    0.112687
    19  H    0.090331
    20  H    0.108928
    21  H    0.117194
    22  H    0.109630
    23  H    0.094461
    24  H    0.092822
 Sum of Mulliken atomic charges =   0.00000

 Dipole moment (field-independent basis, Debye):
    X=             -0.3819    Y=              1.1082    Z=             -1.5055  Tot=              1.9080
 Quadrupole moment (field-independent basis, Debye-Ang):
   XX=            -55.4664   YY=            -62.7653   ZZ=            -65.3533
   XY=              2.4490   XZ=             -3.1493   YZ=              2.9260

 Normal termination of Gaussian 09 at Wed Mar  2 07:51:16 2016.
