 Gaussian 09, Revision A.01,
 Gaussian 09:  EM64L-G09RevA.01  8-May-2009

 -------------
 # mp2/cc-pVTZ
 -------------

 ------------------------------------------
 me_cyclohexanecarboxylate-axA_single_point
 ------------------------------------------
 Symbolic Z-matrix:
 Charge =  0 Multiplicity = 1

                         Standard orientation:
 ---------------------------------------------------------------------
 Center     Atomic      Atomic             Coordinates (Angstroms)
 Number     Number       Type             X           Y           Z
 ---------------------------------------------------------------------
      1          6           0        1.201602   -1.176770    0.843511
      2          6           0        0.102845   -0.108165    1.002816
      3          6           0        0.668420    1.313515    0.757745
      4          6           0        1.408529    1.420899   -0.584822
      5          6           0        2.519672    0.365358   -0.698023
      6          6           0        1.968272   -1.053338   -0.484716
      7          6           0       -1.112878   -0.411059    0.131849
      8          8           0       -2.068455    0.540779    0.267112
      9          6           0       -3.281711    0.327339   -0.478501
     10          8           0       -1.260807   -1.387692   -0.576359
     11          1           0       -0.135732    2.052230    0.822184
     12          1           0        1.372489    1.534056    1.571581
     13          1           0        1.825903    2.429442   -0.694129
     14          1           0        0.695139    1.289967   -1.411606
     15          1           0        3.291641    0.575910    0.057341
     16          1           0        3.012445    0.436622   -1.675461
     17          1           0       -0.280964   -0.139118    2.032603
     18          1           0        2.786698   -1.783524   -0.502626
     19          1           0        1.296263   -1.314330   -1.310956
     20          1           0        1.904857   -1.054687    1.678867
     21          1           0        0.764782   -2.176200    0.934149
     22          1           0       -3.922103    1.176314   -0.240072
     23          1           0       -3.755072   -0.610261   -0.176950
     24          1           0       -3.070761    0.292210   -1.550092
 ---------------------------------------------------------------------

 SCF Done:  E(RHF) =  -461.006313042     A.U. after   13 cycles
 E2 =    -0.1825651699D+01 EUMP2 =    -0.46283196474109D+03

 The electronic state is 1-A.
 Alpha  occ. eigenvalues --  -20.59825 -20.53852 -11.37350 -11.28463 -11.24520
 Alpha  occ. eigenvalues --  -11.22738 -11.22087 -11.22032 -11.21698 -11.21254
 Alpha  occ. eigenvalues --   -1.45052  -1.34904  -1.12103  -1.02806  -1.00333
 Alpha  occ. eigenvalues --   -0.96355  -0.85807  -0.83285  -0.78435  -0.74588
 Alpha  occ. eigenvalues --   -0.67876  -0.67027  -0.66786  -0.64185  -0.61054
 Alpha  occ. eigenvalues --   -0.60185  -0.58616  -0.55249  -0.53449  -0.52751
 Alpha  occ. eigenvalues --   -0.52241  -0.51303  -0.50985  -0.48368  -0.46679
 Alpha  occ. eigenvalues --   -0.45551  -0.43344  -0.43155  -0.42866
 Alpha virt. eigenvalues --    0.13107   0.14657   0.15811   0.16999   0.17907
 Alpha virt. eigenvalues --    0.18665   0.20027   0.20453   0.21293   0.21962
 Alpha virt. eigenvalues --    0.22923   0.23557   0.23977   0.24674   0.25881

 Mulliken atomic charges:
              1
     1  C   -0.191464
     2  C   -0.104986
     3  C   -0.211246
     4  C   -0.201119
     5  C   -0.191584
     6  C   -0.206458
     7  C    0.410745
     8  O   -0.324538
     9  C   -0.068072
    10  O   -0.416059
    11  H    0.127778
    12  H    0.102831
    13  H    0.113938
    14  H    0.091503
    15  H    0.082787
    16  H    0.109414
    17  H    0.135714
    18  H    0.109005
    19  H    0.113476
    20  H    0.102237
    21  H    0.118432
    22  H    0.108793
    23  H    0.096567
    24  H    0.092303
 Sum of Mulliken atomic charges =   0.00000

 Dipole moment (field-independent basis, Debye):
    X=             -0.1653    Y=              1.6633    Z=              0.8520  Tot=              1.8761
 Quadrupole moment (field-independent basis, Debye-Ang):
   XX=            -55.9441   YY=            -66.0922   ZZ=            -61.4221
   XY=             -2.3554   XZ=              0.9850   YZ=             -2.7532

 Normal termination of Gaussian 09 at Wed Mar  2 07:18:52 2016.
