 Gaussian 09, Revision A.01,
 Gaussian 09:  EM64L-G09RevA.01  8-May-2009

 -------------
 # mp2/cc-pVTZ
 -------------

 ---------------------------------
 methylcyclohexane-eq_single_point
 ---------------------------------
 Symbolic Z-matrix:
 Charge =  0 Multiplicity = 1

                         Standard orientation:
 ---------------------------------------------------------------------
 Center     Atomic      Atomic             Coordinates (Angstroms)
 Number     Number       Type             X           Y           Z
 ---------------------------------------------------------------------
      1          6           0       -1.020960   -0.000010   -0.328443
      2          6           0       -0.294147   -1.263875    0.168962
      3          6           0        1.196067   -1.268799   -0.209508
      4          6           0        1.908675   -0.000011    0.284324
      5          6           0        1.196057    1.268804   -0.209495
      6          6           0       -0.294154    1.263898    0.168961
      7          6           0       -2.500935   -0.000007    0.073764
      8          1           0        1.685271   -2.162891    0.196892
      9          1           0        1.290258   -1.332509   -1.303618
     10          1           0        2.955978    0.000021   -0.042862
     11          1           0        1.925209   -0.000009    1.384282
     12          1           0        1.290272    1.332524   -1.303600
     13          1           0        1.685296    2.162868    0.196923
     14          1           0       -0.390001   -1.318352    1.264561
     15          1           0       -0.788826   -2.159152   -0.230282
     16          1           0       -0.788847    2.159143   -0.230328
     17          1           0       -0.390035    1.318363    1.264554
     18          1           0       -0.969422    0.000026   -1.429478
     19          1           0       -2.610414   -0.000018    1.165746
     20          1           0       -3.019177    0.885735   -0.312092
     21          1           0       -3.019179   -0.885755   -0.312082
 ---------------------------------------------------------------------

 SCF Done:  E(RHF) =  -273.333679468     A.U. after   11 cycles
 E2 =    -0.1220429927D+01 EUMP2 =    -0.27455410939450D+03

 The electronic state is 1-A.
 Alpha  occ. eigenvalues --  -11.22069 -11.21458 -11.21428 -11.21372 -11.21282
 Alpha  occ. eigenvalues --  -11.21278 -11.20881  -1.11332  -1.02560  -0.99591
 Alpha  occ. eigenvalues --   -0.91306  -0.82684  -0.79611  -0.74548  -0.63640
 Alpha  occ. eigenvalues --   -0.60502  -0.59645  -0.59578  -0.56197  -0.52981
 Alpha  occ. eigenvalues --   -0.51974  -0.50712  -0.48559  -0.47638  -0.46546
 Alpha  occ. eigenvalues --   -0.44540  -0.42289  -0.41951
 Alpha virt. eigenvalues --    0.14158   0.15511   0.15779   0.16605   0.19681
 Alpha virt. eigenvalues --    0.20571   0.20892   0.21499   0.22647   0.23605
 Alpha virt. eigenvalues --    0.24178   0.24219   0.26167   0.27502   0.29788

 Mulliken atomic charges:
              1
     1  C   -0.068080
     2  C   -0.187845
     3  C   -0.198059
     4  C   -0.186952
     5  C   -0.198063
     6  C   -0.187848
     7  C   -0.304767
     8  H    0.106768
     9  H    0.085762
    10  H    0.106775
    11  H    0.085143
    12  H    0.085764
    13  H    0.106768
    14  H    0.084424
    15  H    0.104220
    16  H    0.104221
    17  H    0.084426
    18  H    0.095497
    19  H    0.087121
    20  H    0.097363
    21  H    0.097362
 Sum of Mulliken atomic charges =   0.00000

 Dipole moment (field-independent basis, Debye):
    X=              0.0788    Y=              0.0000    Z=             -0.0750  Tot=              0.1088
 Quadrupole moment (field-independent basis, Debye-Ang):
   XX=            -48.2426   YY=            -47.5482   ZZ=            -46.8104
   XY=              0.0000   XZ=              0.2728   YZ=             -0.0001

 Normal termination of Gaussian 09 at Sun Feb 14 23:26:31 2016.
