 Gaussian 09, Revision A.01,
 Gaussian 09:  EM64L-G09RevA.01  8-May-2009

 -------------
 # mp2/cc-pVTZ
 -------------

 ----------------------------------
 methoxycyclohexane-ax_single_point
 ----------------------------------
 Symbolic Z-matrix:
 Charge =  0 Multiplicity = 1

                         Standard orientation:
 ---------------------------------------------------------------------
 Center     Atomic      Atomic             Coordinates (Angstroms)
 Number     Number       Type             X           Y           Z
 ---------------------------------------------------------------------
      1          6           0        0.623761   -0.309490    0.679212
      2          6           0        0.029246    1.103916    0.824878
      3          6           0       -0.990284    1.420351   -0.281585
      4          6           0       -2.097701    0.356159   -0.344457
      5          6           0       -1.508171   -1.053790   -0.509649
      6          6           0       -0.483634   -1.366174    0.593736
      7          8           0        1.419839   -0.443329   -0.506872
      8          6           0        2.693300    0.170251   -0.443158
      9          1           0       -1.424045    2.413931   -0.113831
     10          1           0       -0.471220    1.459804   -1.247890
     11          1           0       -2.788751    0.577419   -1.167290
     12          1           0       -2.691103    0.396329    0.581645
     13          1           0       -1.015922   -1.131321   -1.486887
     14          1           0       -2.307327   -1.805154   -0.495524
     15          1           0       -0.461074    1.160726    1.807275
     16          1           0        0.828565    1.854373    0.840158
     17          1           0       -0.024388   -2.347542    0.430043
     18          1           0       -0.992071   -1.404242    1.567416
     19          1           0        1.265660   -0.526232    1.549969
     20          1           0        3.224070   -0.105348   -1.357787
     21          1           0        2.632125    1.266764   -0.391103
     22          1           0        3.267658   -0.190211    0.424922
 ---------------------------------------------------------------------

 SCF Done:  E(RHF) =  -348.205137912     A.U. after   12 cycles
 E2 =    -0.1449604549D+01 EUMP2 =    -0.34965474246061D+03

 The electronic state is 1-A.
 Alpha  occ. eigenvalues --  -20.54571 -11.27344 -11.26688 -11.21679 -11.21355
 Alpha  occ. eigenvalues --  -11.21353 -11.21290 -11.21055  -1.36102  -1.10181
 Alpha  occ. eigenvalues --   -1.00089  -0.99585  -0.91227  -0.82981  -0.81746
 Alpha  occ. eigenvalues --   -0.73750  -0.66827  -0.64086  -0.63152  -0.61619
 Alpha  occ. eigenvalues --   -0.58708  -0.57281  -0.53665  -0.53059  -0.51973
 Alpha  occ. eigenvalues --   -0.50485  -0.48412  -0.47536  -0.45132  -0.44211
 Alpha  occ. eigenvalues --   -0.42323  -0.40200
 Alpha virt. eigenvalues --    0.13669   0.15448   0.16259   0.17262   0.19529
 Alpha virt. eigenvalues --    0.19918   0.20859   0.21573   0.22071   0.23051
 Alpha virt. eigenvalues --    0.23543   0.25074   0.25918   0.27752   0.28388

 Mulliken atomic charges:
              1
     1  C    0.119772
     2  C   -0.222577
     3  C   -0.180174
     4  C   -0.197717
     5  C   -0.191401
     6  C   -0.184273
     7  O   -0.394411
     8  C   -0.075443
     9  H    0.106727
    10  H    0.094157
    11  H    0.106729
    12  H    0.081516
    13  H    0.098847
    14  H    0.105928
    15  H    0.100542
    16  H    0.107543
    17  H    0.105258
    18  H    0.087108
    19  H    0.097189
    20  H    0.110277
    21  H    0.063104
    22  H    0.061299
 Sum of Mulliken atomic charges =   0.00000

 Dipole moment (field-independent basis, Debye):
    X=              0.3845    Y=              0.6536    Z=              0.9509  Tot=              1.2162
 Quadrupole moment (field-independent basis, Debye-Ang):
   XX=            -49.2038   YY=            -52.4774   ZZ=            -51.8579
   XY=              1.3431   XZ=              0.2648   YZ=             -0.8021

 Normal termination of Gaussian 09 at Wed Mar  2 08:12:30 2016.
