 Gaussian 09, Revision A.01,
 Gaussian 09:  EM64L-G09RevA.01  8-May-2009

 -------------
 # mp2/cc-pVTZ
 -------------

 ----------------------------------
 methoxycyclohexane-eq_single_point
 ----------------------------------
 Symbolic Z-matrix:
 Charge =  0 Multiplicity = 1

                         Standard orientation:
 ---------------------------------------------------------------------
 Center     Atomic      Atomic             Coordinates (Angstroms)
 Number     Number       Type             X           Y           Z
 ---------------------------------------------------------------------
      1          6           0        0.601418   -0.196536    0.196661
      2          6           0       -0.325866   -1.348012   -0.196495
      3          6           0       -1.762381   -1.117111    0.300506
      4          6           0       -2.318512    0.231748   -0.182340
      5          6           0       -1.384360    1.388556    0.204731
      6          6           0        0.050354    1.149884   -0.299018
      7          8           0        1.890920   -0.495667   -0.344151
      8          6           0        2.963200    0.241997    0.214077
      9          1           0       -2.407433   -1.938482   -0.033918
     10          1           0       -1.776487   -1.140499    1.400075
     11          1           0       -3.321236    0.399400    0.229910
     12          1           0       -2.428538    0.207041   -1.276132
     13          1           0       -1.373387    1.493414    1.299664
     14          1           0       -1.764796    2.337649   -0.191972
     15          1           0       -0.316852   -1.433734   -1.291661
     16          1           0        0.079896   -2.286255    0.198412
     17          1           0        0.700105    1.973058    0.020539
     18          1           0        0.064362    1.137914   -1.397671
     19          1           0        0.682849   -0.164141    1.298956
     20          1           0        3.882791   -0.166532   -0.211910
     21          1           0        2.910267    1.312576   -0.029133
     22          1           0        2.997987    0.130777    1.309323
 ---------------------------------------------------------------------

 SCF Done:  E(RHF) =  -348.206020838     A.U. after   12 cycles
 E2 =    -0.1448595850D+01 EUMP2 =    -0.34965461668757D+03

 The electronic state is 1-A.
 Alpha  occ. eigenvalues --  -20.54522 -11.27248 -11.26596 -11.22076 -11.21865
 Alpha  occ. eigenvalues --  -11.21776 -11.21622 -11.21271  -1.36030  -1.10768
 Alpha  occ. eigenvalues --   -1.00320  -0.99805  -0.91104  -0.83333  -0.81159
 Alpha  occ. eigenvalues --   -0.75721  -0.66004  -0.64620  -0.62287  -0.61635
 Alpha  occ. eigenvalues --   -0.59037  -0.58530  -0.55738  -0.52606  -0.51186
 Alpha  occ. eigenvalues --   -0.49812  -0.48280  -0.47083  -0.45651  -0.44668
 Alpha  occ. eigenvalues --   -0.43562  -0.40218
 Alpha virt. eigenvalues --    0.13827   0.15190   0.15949   0.16807   0.18927
 Alpha virt. eigenvalues --    0.20242   0.21399   0.21638   0.22063   0.22684
 Alpha virt. eigenvalues --    0.24103   0.24572   0.25319   0.26879   0.28306

 Mulliken atomic charges:
              1
     1  C    0.165227
     2  C   -0.191000
     3  C   -0.208202
     4  C   -0.188920
     5  C   -0.206005
     6  C   -0.203161
     7  O   -0.381743
     8  C   -0.075773
     9  H    0.109791
    10  H    0.087108
    11  H    0.108311
    12  H    0.087796
    13  H    0.088510
    14  H    0.110136
    15  H    0.092722
    16  H    0.110834
    17  H    0.104421
    18  H    0.094500
    19  H    0.064751
    20  H    0.111256
    21  H    0.061877
    22  H    0.057562
 Sum of Mulliken atomic charges =   0.00000

 Dipole moment (field-independent basis, Debye):
    X=             -0.3723    Y=              0.9337    Z=              0.9026  Tot=              1.3509
 Quadrupole moment (field-independent basis, Debye-Ang):
   XX=            -50.5096   YY=            -52.4904   ZZ=            -51.9752
   XY=              2.3399   XZ=              2.0680   YZ=             -0.5570

 Normal termination of Gaussian 09 at Wed Mar  2 08:32:59 2016.
