 Gaussian 09, Revision A.01,
 Gaussian 09:  EM64L-G09RevA.01  8-May-2009

 -------------
 # mp2/cc-pVTZ
 -------------

 ---------------------------------
 methylcyclohexane-ax_single_point
 ---------------------------------
 Symbolic Z-matrix:
 Charge =  0 Multiplicity = 1

                         Standard orientation:
 ---------------------------------------------------------------------
 Center     Atomic      Atomic             Coordinates (Angstroms)
 Number     Number       Type             X           Y           Z
 ---------------------------------------------------------------------
      1          6           0        1.130423    0.000001    0.493654
      2          6           0        0.252838    1.265645    0.630319
      3          6           0       -0.952940    1.270383   -0.325187
      4          6           0       -1.803731   -0.000002   -0.161900
      5          6           0       -0.952933   -1.270387   -0.325186
      6          6           0        0.252845   -1.265643    0.630321
      7          6           0        1.963994    0.000001   -0.799875
      8          1           0       -1.565427    2.162360   -0.143000
      9          1           0       -0.606479    1.344567   -1.365196
     10          1           0       -2.632007   -0.000014   -0.881557
     11          1           0       -2.259760    0.000005    0.839508
     12          1           0       -0.606480   -1.344554   -1.365200
     13          1           0       -1.565435   -2.162355   -0.143013
     14          1           0       -0.119899    1.323332    1.663295
     15          1           0        0.865429    2.162864    0.471648
     16          1           0        0.865431   -2.162869    0.471662
     17          1           0       -0.119909   -1.323331    1.663291
     18          1           0        1.842517    0.000003    1.331026
     19          1           0        1.340759    0.000006   -1.700153
     20          1           0        2.609148    0.885114   -0.847593
     21          1           0        2.609142   -0.885117   -0.847597
 ---------------------------------------------------------------------

 SCF Done:  E(RHF) =  -273.329749629     A.U. after   11 cycles
 E2 =    -0.1221555588D+01 EUMP2 =    -0.27455130521653D+03

 The electronic state is 1-A.
 Alpha  occ. eigenvalues --  -11.22146 -11.21412 -11.21363 -11.21333 -11.21282
 Alpha  occ. eigenvalues --  -11.21276 -11.20825  -1.11224  -1.02081  -0.99544
 Alpha  occ. eigenvalues --   -0.91678  -0.82539  -0.80769  -0.72131  -0.64853
 Alpha  occ. eigenvalues --   -0.60970  -0.60525  -0.57937  -0.55192  -0.54739
 Alpha  occ. eigenvalues --   -0.51903  -0.49677  -0.49541  -0.47200  -0.47043
 Alpha  occ. eigenvalues --   -0.43850  -0.42031  -0.41877
 Alpha virt. eigenvalues --    0.13480   0.15653   0.16303   0.17004   0.19876
 Alpha virt. eigenvalues --    0.20034   0.20501   0.21719   0.21974   0.23091
 Alpha virt. eigenvalues --    0.24578   0.25087   0.26700   0.28589   0.30685

 Mulliken atomic charges:
              1
     1  C   -0.083828
     2  C   -0.197635
     3  C   -0.205811
     4  C   -0.187952
     5  C   -0.205812
     6  C   -0.197634
     7  C   -0.312592
     8  H    0.110793
     9  H    0.091093
    10  H    0.107127
    11  H    0.083604
    12  H    0.091092
    13  H    0.110794
    14  H    0.095808
    15  H    0.103011
    16  H    0.103012
    17  H    0.095806
    18  H    0.108405
    19  H    0.090319
    20  H    0.100200
    21  H    0.100199
 Sum of Mulliken atomic charges =   0.00000

 Dipole moment (field-independent basis, Debye):
    X=             -0.0068    Y=              0.0000    Z=              0.0634  Tot=              0.0638
 Quadrupole moment (field-independent basis, Debye-Ang):
   XX=            -47.6297   YY=            -47.5505   ZZ=            -47.1692
   XY=              0.0000   XZ=              0.0920   YZ=              0.0000

 Normal termination of Gaussian 09 at Sun Feb 14 22:56:29 2016.
