 Gaussian 09, Revision A.01,
 Gaussian 09:  EM64L-G09RevA.01  8-May-2009

 -------------
 # mp2/cc-pVTZ
 -------------

 ------------------------------
 Ph3SiO_cycl_ax_sp_single_point
 ------------------------------
 Symbolic Z-matrix:
 Charge =  0 Multiplicity = 1

                         Standard orientation:
 ---------------------------------------------------------------------
 Center     Atomic      Atomic             Coordinates (Angstroms)
 Number     Number       Type             X           Y           Z
 ---------------------------------------------------------------------
      1          6           0        3.186044    3.738179   -0.486774
      2          6           0        1.964313    3.858488    0.180976
      3          6           0        1.129034    2.746443    0.315907
      4          6           0        1.485233    1.492244   -0.215398
      5          6           0        2.721043    1.395683   -0.883908
      6          6           0        3.564504    2.502129   -1.017463
      7         14           0        0.375150   -0.012789    0.063121
      8          6           0        0.502246   -1.171716   -1.427876
      9          6           0        0.655639   -0.678795   -2.738823
     10          6           0        0.671765   -1.536279   -3.842429
     11          6           0        0.538894   -2.915094   -3.657775
     12          6           0        0.388869   -3.428724   -2.366612
     13          6           0        0.369776   -2.565143   -1.268176
     14          8           0       -1.199027    0.485361    0.330671
     15          6           0       -2.104273    1.042432   -0.643589
     16          6           0       -3.058591   -0.048638   -1.155599
     17          6           0       -4.008435   -0.553238   -0.057631
     18          6           0       -4.785991    0.604660    0.589200
     19          6           0       -3.833768    1.690068    1.117286
     20          6           0       -2.885413    2.188465    0.014926
     21          6           0        0.835212   -0.920227    1.647829
     22          6           0        2.100875   -1.516999    1.802145
     23          6           0        2.451494   -2.180281    2.980372
     24          6           0        1.538093   -2.257705    4.036232
     25          6           0        0.277521   -1.669853    3.905137
     26          6           0       -0.068358   -1.008922    2.722528
     27          1           0       -4.702179   -1.290933   -0.479362
     28          1           0       -3.423332   -1.073746    0.710995
     29          1           0       -5.420961    0.229279    1.401467
     30          1           0       -5.462479    1.048598   -0.156847
     31          1           0       -3.238724    1.283124    1.944522
     32          1           0       -4.404401    2.534184    1.523934
     33          1           0       -3.645319    0.378464   -1.981889
     34          1           0       -2.475175   -0.875289   -1.574577
     35          1           0       -2.182059    2.928550    0.412977
     36          1           0       -3.467725    2.693044   -0.769308
     37          1           0       -1.527314    1.443449   -1.489396
     38          1           0        2.828262   -1.467694    0.994505
     39          1           0        3.434342   -2.634057    3.075145
     40          1           0        1.808281   -2.772109    4.954473
     41          1           0       -0.436748   -1.725821    4.722406
     42          1           0       -1.050449   -0.555758    2.626754
     43          1           0        0.768842    0.389571   -2.905788
     44          1           0        0.253905   -2.983276   -0.271562
     45          1           0        0.288448   -4.500111   -2.214923
     46          1           0        0.791215   -1.129166   -4.842940
     47          1           0        0.554731   -3.584612   -4.513479
     48          1           0        3.032753    0.446653   -1.313358
     49          1           0        0.186768    2.854301    0.846283
     50          1           0        1.663538    4.815859    0.598185
     51          1           0        4.513070    2.399968   -1.537870
     52          1           0        3.838472    4.600634   -0.592304
 ---------------------------------------------------------------------

 SCF Done:  E(RHF) =  -1288.19752874     A.U. after   14 cycles
 E2 =    -0.4218154120D+01 EUMP2 =    -0.12924156828588D+04

 The electronic state is 1-A.
 Alpha  occ. eigenvalues --  -68.78769 -20.53412 -11.27997 -11.24051 -11.23911
 Alpha  occ. eigenvalues --  -11.23788 -11.23769 -11.23694 -11.23585 -11.23522
 Alpha  occ. eigenvalues --  -11.23447 -11.23436 -11.23403 -11.23340 -11.23292
 Alpha  occ. eigenvalues --  -11.23078 -11.22991 -11.22875 -11.22060 -11.21915
 Alpha  occ. eigenvalues --  -11.21579 -11.21530 -11.21324 -11.21257 -11.21226
 Alpha  occ. eigenvalues --  -11.21097  -6.13016  -4.23730  -4.23680  -4.23664
 Alpha  occ. eigenvalues --   -1.33210  -1.14556  -1.14211  -1.13869  -1.09863
 Alpha  occ. eigenvalues --   -1.01706  -1.01197  -1.00933  -1.00564  -1.00347
 Alpha  occ. eigenvalues --   -1.00113  -0.99808  -0.98731  -0.83619  -0.82988
 Alpha  occ. eigenvalues --   -0.82470  -0.82186  -0.81844  -0.81323  -0.81059
 Alpha  occ. eigenvalues --   -0.80674  -0.75067  -0.71702  -0.69570  -0.69358
 Alpha  occ. eigenvalues --   -0.67738  -0.65216  -0.63210  -0.62761  -0.62512
 Alpha  occ. eigenvalues --   -0.61851  -0.61703  -0.61272  -0.61077  -0.60688
 Alpha  occ. eigenvalues --   -0.58934  -0.58390  -0.58157  -0.57734  -0.56253
 Alpha  occ. eigenvalues --   -0.55914  -0.54584  -0.53997  -0.52209  -0.51875
 Alpha  occ. eigenvalues --   -0.50693  -0.50044  -0.49837  -0.49456  -0.49023
 Alpha  occ. eigenvalues --   -0.48916  -0.48730  -0.48509  -0.47357  -0.46423
 Alpha  occ. eigenvalues --   -0.45204  -0.43236  -0.42819  -0.41937  -0.40578
 Alpha  occ. eigenvalues --   -0.34194  -0.33689  -0.33614  -0.33250  -0.32851
 Alpha  occ. eigenvalues --   -0.32273
 Alpha virt. eigenvalues --    0.10146   0.10546   0.11535   0.12148   0.12972
 Alpha virt. eigenvalues --    0.13510   0.13982   0.14784   0.14899   0.15266
 Alpha virt. eigenvalues --    0.16103   0.16658   0.17078   0.17537   0.17638

 Mulliken atomic charges:
              1
     1  C   -0.150926
     2  C   -0.146527
     3  C   -0.171509
     4  C   -0.052520
     5  C   -0.169259
     6  C   -0.143676
     7  Si   0.345888
     8  C   -0.107543
     9  C   -0.139731
    10  C   -0.142242
    11  C   -0.148929
    12  C   -0.146890
    13  C   -0.153077
    14  O   -0.489733
    15  C    0.092262
    16  C   -0.207328
    17  C   -0.189488
    18  C   -0.197659
    19  C   -0.195942
    20  C   -0.190532
    21  C   -0.106046
    22  C   -0.116910
    23  C   -0.141155
    24  C   -0.149340
    25  C   -0.146885
    26  C   -0.169031
    27  H    0.109142
    28  H    0.094259
    29  H    0.106974
    30  H    0.082250
    31  H    0.095132
    32  H    0.109633
    33  H    0.099952
    34  H    0.133325
    35  H    0.110105
    36  H    0.094485
    37  H    0.116883
    38  H    0.145446
    39  H    0.150631
    40  H    0.151118
    41  H    0.150730
    42  H    0.187145
    43  H    0.174091
    44  H    0.171424
    45  H    0.154136
    46  H    0.152987
    47  H    0.153942
    48  H    0.167787
    49  H    0.167335
    50  H    0.151755
    51  H    0.152026
    52  H    0.152036
 Sum of Mulliken atomic charges =   0.00000

 Dipole moment (field-independent basis, Debye):
    X=              0.1328    Y=              0.0516    Z=             -1.1306  Tot=              1.1395
 Quadrupole moment (field-independent basis, Debye-Ang):
   XX=           -158.7596   YY=           -154.4552   ZZ=           -155.9791
   XY=             -1.3685   XZ=             -2.6840   YZ=             -1.0748

 Normal termination of Gaussian 09 at Wed Sep 28 12:50:39 2016.
