 Gaussian 09, Revision A.01,
 Gaussian 09:  EM64L-G09RevA.01  8-May-2009

 -------------
 # mp2/cc-pVTZ
 -------------

 ------------------------------
 Ph3SiO_cycl_eq_sp_single_point
 ------------------------------
 Symbolic Z-matrix:
 Charge =  0 Multiplicity = 1

                         Standard orientation:
 ---------------------------------------------------------------------
 Center     Atomic      Atomic             Coordinates (Angstroms)
 Number     Number       Type             X           Y           Z
 ---------------------------------------------------------------------
      1          6           0       -1.621380    4.415071    1.214926
      2          6           0       -0.936166    4.173540    0.020710
      3          6           0       -0.594262    2.867041   -0.337108
      4          6           0       -0.920918    1.771865    0.486506
      5          6           0       -1.610490    2.039940    1.684580
      6          6           0       -1.960164    3.344456    2.046348
      7         14           0       -0.514746    0.014989   -0.078705
      8          6           0       -0.229970   -1.085747    1.434772
      9          6           0        0.465933   -0.620051    2.568397
     10          6           0        0.728168   -1.456574    3.656733
     11          6           0        0.292519   -2.784555    3.637948
     12          6           0       -0.404201   -3.268266    2.527409
     13          6           0       -0.660083   -2.427060    1.440896
     14          8           0        0.819476    0.035928   -1.085069
     15          6           0        2.198417    0.173269   -0.708552
     16          6           0        2.873023    1.170640   -1.655499
     17          6           0        4.378886    1.295256   -1.367518
     18          6           0        5.078360   -0.072375   -1.409568
     19          6           0        4.397058   -1.074439   -0.464378
     20          6           0        2.891631   -1.193029   -0.757342
     21          6           0       -1.886940   -0.684307   -1.161748
     22          6           0       -3.239839   -0.557161   -0.794077
     23          6           0       -4.259224   -1.094438   -1.583778
     24          6           0       -3.943883   -1.769495   -2.766926
     25          6           0       -2.607693   -1.901946   -3.153386
     26          6           0       -1.591416   -1.364299   -2.357723
     27          1           0        4.838197    1.983186   -2.087567
     28          1           0        4.524025    1.744953   -0.374247
     29          1           0        6.138727    0.035354   -1.149875
     30          1           0        5.044426   -0.463985   -2.436620
     31          1           0        4.541793   -0.747627    0.575797
     32          1           0        4.869694   -2.060656   -0.545956
     33          1           0        2.714171    0.821668   -2.685098
     34          1           0        2.381581    2.146362   -1.569373
     35          1           0        2.410451   -1.873539   -0.046355
     36          1           0        2.738173   -1.613880   -1.760671
     37          1           0        2.266530    0.566221    0.318541
     38          1           0       -3.507823   -0.026205    0.116739
     39          1           0       -5.296513   -0.982475   -1.280031
     40          1           0       -4.735055   -2.185716   -3.384607
     41          1           0       -2.356180   -2.420948   -4.074515
     42          1           0       -0.555792   -1.462768   -2.669617
     43          1           0        0.804353    0.412614    2.609684
     44          1           0       -1.206437   -2.820045    0.587378
     45          1           0       -0.750008   -4.298245    2.507576
     46          1           0        1.267042   -1.071740    4.518381
     47          1           0        0.491696   -3.436282    4.484219
     48          1           0       -1.875991    1.222912    2.350973
     49          1           0       -0.068028    2.694402   -1.272300
     50          1           0       -0.670665    5.001177   -0.631586
     51          1           0       -2.492447    3.523944    2.976608
     52          1           0       -1.889484    5.430028    1.495206
 ---------------------------------------------------------------------

 SCF Done:  E(RHF) =  -1288.19950422     A.U. after   13 cycles
 E2 =    -0.4215989096D+01 EUMP2 =    -0.12924154933197D+04

 The electronic state is 1-A.
 Alpha  occ. eigenvalues --  -68.78687 -20.53380 -11.27869 -11.23987 -11.23890
 Alpha  occ. eigenvalues --  -11.23801 -11.23694 -11.23687 -11.23564 -11.23492
 Alpha  occ. eigenvalues --  -11.23390 -11.23382 -11.23334 -11.23300 -11.23275
 Alpha  occ. eigenvalues --  -11.23032 -11.22905 -11.22826 -11.22009 -11.21872
 Alpha  occ. eigenvalues --  -11.21871 -11.21774 -11.21676 -11.21437 -11.21413
 Alpha  occ. eigenvalues --  -11.21205  -6.12937  -4.23650  -4.23597  -4.23589
 Alpha  occ. eigenvalues --   -1.33215  -1.14501  -1.14185  -1.13799  -1.10465
 Alpha  occ. eigenvalues --   -1.01672  -1.01141  -1.00915  -1.00504  -1.00314
 Alpha  occ. eigenvalues --   -1.00055  -1.00022  -0.98621  -0.83692  -0.83307
 Alpha  occ. eigenvalues --   -0.82420  -0.81983  -0.81764  -0.81243  -0.80963
 Alpha  occ. eigenvalues --   -0.80592  -0.75544  -0.72553  -0.69540  -0.69376
 Alpha  occ. eigenvalues --   -0.67835  -0.64638  -0.63715  -0.62806  -0.62505
 Alpha  occ. eigenvalues --   -0.61754  -0.61502  -0.61189  -0.60701  -0.60168
 Alpha  occ. eigenvalues --   -0.59087  -0.58343  -0.58116  -0.57775  -0.56987
 Alpha  occ. eigenvalues --   -0.56100  -0.54734  -0.54259  -0.52950  -0.52444
 Alpha  occ. eigenvalues --   -0.50064  -0.49851  -0.49573  -0.49343  -0.48827
 Alpha  occ. eigenvalues --   -0.48708  -0.48358  -0.48193  -0.47169  -0.46273
 Alpha  occ. eigenvalues --   -0.45724  -0.43496  -0.43314  -0.42565  -0.40455
 Alpha  occ. eigenvalues --   -0.34107  -0.33664  -0.33503  -0.33189  -0.32837
 Alpha  occ. eigenvalues --   -0.32343
 Alpha virt. eigenvalues --    0.10357   0.10495   0.11724   0.12135   0.13089
 Alpha virt. eigenvalues --    0.13587   0.13748   0.14744   0.14874   0.15278
 Alpha virt. eigenvalues --    0.15969   0.16453   0.17239   0.17387   0.17745

 Mulliken atomic charges:
              1
     1  C   -0.151506
     2  C   -0.143849
     3  C   -0.166888
     4  C   -0.060003
     5  C   -0.165046
     6  C   -0.143708
     7  Si   0.343372
     8  C   -0.101537
     9  C   -0.146654
    10  C   -0.145238
    11  C   -0.148109
    12  C   -0.150010
    13  C   -0.161059
    14  O   -0.477571
    15  C    0.155952
    16  C   -0.194486
    17  C   -0.206724
    18  C   -0.187827
    19  C   -0.207291
    20  C   -0.195174
    21  C   -0.105225
    22  C   -0.116109
    23  C   -0.143012
    24  C   -0.148146
    25  C   -0.144230
    26  C   -0.157145
    27  H    0.109583
    28  H    0.090197
    29  H    0.108463
    30  H    0.086353
    31  H    0.091142
    32  H    0.109700
    33  H    0.092983
    34  H    0.108264
    35  H    0.125708
    36  H    0.091254
    37  H    0.081004
    38  H    0.144987
    39  H    0.151097
    40  H    0.151269
    41  H    0.151125
    42  H    0.171615
    43  H    0.172423
    44  H    0.169233
    45  H    0.154111
    46  H    0.152721
    47  H    0.153652
    48  H    0.174843
    49  H    0.168229
    50  H    0.152297
    51  H    0.152760
    52  H    0.152211
 Sum of Mulliken atomic charges =   0.00000

 Dipole moment (field-independent basis, Debye):
    X=              0.6320    Y=              0.0228    Z=              1.0273  Tot=              1.2063
 Quadrupole moment (field-independent basis, Debye-Ang):
   XX=           -158.0684   YY=           -154.8573   ZZ=           -155.7531
   XY=              1.3732   XZ=             -0.7740   YZ=              1.7165

 Normal termination of Gaussian 09 at Thu Sep 29 12:14:38 2016.
