 Gaussian 09, Revision A.01,
 Gaussian 09:  EM64L-G09RevA.01  8-May-2009

 -------------
 # mp2/cc-pVTZ
 -------------

 ---------------------------------
 phenylcyclohexane-eq_single_point
 ---------------------------------
 Symbolic Z-matrix:
 Charge =  0 Multiplicity = 1

                         Standard orientation:
 ---------------------------------------------------------------------
 Center     Atomic      Atomic             Coordinates (Angstroms)
 Number     Number       Type             X           Y           Z
 ---------------------------------------------------------------------
      1          6           0       -3.715070    0.238276   -0.000567
      2          6           0       -2.833237    1.323309   -0.002954
      3          6           0       -1.453306    1.108957   -0.002439
      4          6           0       -0.920527   -0.191028    0.000487
      5          6           0       -1.819270   -1.267989    0.002855
      6          6           0       -3.201880   -1.060382    0.002334
      7          6           0        0.579565   -0.436906    0.001053
      8          6           0        1.271915    0.111039   -1.268989
      9          6           0        2.781478   -0.179067   -1.268067
     10          6           0        3.462827    0.359962   -0.000866
     11          6           0        2.781519   -0.173192    1.268830
     12          6           0        1.271964    0.116958    1.268476
     13          1           0        0.800505   -0.320611   -2.160295
     14          1           0        1.111996    1.196873   -1.327599
     15          1           0        3.245150    0.253278   -2.163495
     16          1           0        3.413134    1.458869   -0.003407
     17          1           0        0.727066   -1.527309    0.003592
     18          1           0        3.245244    0.263256    2.162238
     19          1           0        1.112059    1.203055    1.322009
     20          1           0        0.800595   -0.310517    2.161814
     21          1           0        4.527774    0.096329   -0.000276
     22          1           0        2.940367   -1.265726   -1.329421
     23          1           0        2.940357   -1.259571    1.335183
     24          1           0       -1.430444   -2.283799    0.005107
     25          1           0       -0.785670    1.966493   -0.004360
     26          1           0       -3.220205    2.338725   -0.005223
     27          1           0       -3.875260   -1.913226    0.004194
     28          1           0       -4.788533    0.404255   -0.000966
 ---------------------------------------------------------------------

 SCF Done:  E(RHF) =  -463.899415144     A.U. after   13 cycles
 E2 =    -0.1982389766D+01 EUMP2 =    -0.46588180490995D+03

 The electronic state is 1-A.
 Alpha  occ. eigenvalues --  -11.23626 -11.23183 -11.23142 -11.23036 -11.22811
 Alpha  occ. eigenvalues --  -11.22744 -11.22728 -11.21821 -11.21820 -11.21766
 Alpha  occ. eigenvalues --  -11.21741 -11.21686  -1.15059  -1.11092  -1.03795
 Alpha  occ. eigenvalues --   -1.00640  -1.00002  -0.97025  -0.84860  -0.82987
 Alpha  occ. eigenvalues --   -0.82074  -0.78627  -0.74844  -0.69102  -0.64506
 Alpha  occ. eigenvalues --   -0.63263  -0.61690  -0.59939  -0.59697  -0.58393
 Alpha  occ. eigenvalues --   -0.57350  -0.54125  -0.53250  -0.52317  -0.49467
 Alpha  occ. eigenvalues --   -0.49259  -0.48437  -0.48247  -0.47171  -0.45023
 Alpha  occ. eigenvalues --   -0.42916  -0.42757  -0.33081  -0.32017
 Alpha virt. eigenvalues --    0.12824   0.13432   0.13934   0.14728   0.15132
 Alpha virt. eigenvalues --    0.16706   0.17464   0.17941   0.19451   0.20675
 Alpha virt. eigenvalues --    0.21010   0.21722   0.22074   0.22751   0.23748

 Mulliken atomic charges:
              1
     1  C   -0.173799
     2  C   -0.140320
     3  C   -0.196815
     4  C    0.044742
     5  C   -0.167409
     6  C   -0.134706
     7  C   -0.097440
     8  C   -0.188488
     9  C   -0.203305
    10  C   -0.188064
    11  C   -0.203300
    12  C   -0.188492
    13  H    0.111818
    14  H    0.093086
    15  H    0.109331
    16  H    0.084921
    17  H    0.101347
    18  H    0.109332
    19  H    0.093085
    20  H    0.111819
    21  H    0.109640
    22  H    0.088124
    23  H    0.088119
    24  H    0.143169
    25  H    0.146243
    26  H    0.148320
    27  H    0.149558
    28  H    0.149482
 Sum of Mulliken atomic charges =   0.00000

 Dipole moment (field-independent basis, Debye):
    X=              0.4768    Y=             -0.0261    Z=              0.0000  Tot=              0.4775
 Quadrupole moment (field-independent basis, Debye-Ang):
   XX=            -71.9601   YY=            -70.4103   ZZ=            -79.0231
   XY=             -0.0013   XZ=              0.0003   YZ=             -0.0192

 Normal termination of Gaussian 09 at Tue Mar 15 02:03:07 2016.
