 Gaussian 09, Revision A.01,
 Gaussian 09:  EM64L-G09RevA.01  8-May-2009

 -------------
 # mp2/cc-pVTZ
 -------------

 ---------------------------------
 phenylcyclohexane-ax_single_point
 ---------------------------------
 Symbolic Z-matrix:
 Charge =  0 Multiplicity = 1

                         Standard orientation:
 ---------------------------------------------------------------------
 Center     Atomic      Atomic             Coordinates (Angstroms)
 Number     Number       Type             X           Y           Z
 ---------------------------------------------------------------------
      1          6           0       -3.373246   -0.284352   -0.513773
      2          6           0       -2.490030   -1.357359   -0.396519
      3          6           0       -1.189395   -1.156475    0.079993
      4          6           0       -0.733712    0.118649    0.446056
      5          6           0       -1.645079    1.184917    0.333394
      6          6           0       -2.943252    0.992472   -0.139841
      7          6           0        0.662569    0.391681    1.019541
      8          6           0        1.429203    1.493546    0.238138
      9          6           0        2.001633    0.994797   -1.097021
     10          6           0        2.930433   -0.209943   -0.885018
     11          6           0        2.201689   -1.340742   -0.143379
     12          6           0        1.576451   -0.846581    1.175390
     13          1           0        0.784842    2.363225    0.072105
     14          1           0        2.258823    1.840835    0.870625
     15          1           0        2.542192    1.809887   -1.594083
     16          1           0        3.805405    0.107825   -0.298471
     17          1           0        0.489433    0.786676    2.031372
     18          1           0        2.893832   -2.165374    0.068830
     19          1           0        2.392343   -0.564342    1.855154
     20          1           0        1.037690   -1.659906    1.676029
     21          1           0        3.313645   -0.573724   -1.846402
     22          1           0        1.178804    0.709905   -1.767128
     23          1           0        1.425653   -1.748440   -0.802667
     24          1           0       -1.339404    2.184174    0.632416
     25          1           0       -0.534509   -2.015681    0.168332
     26          1           0       -2.808671   -2.358703   -0.673379
     27          1           0       -3.620874    1.839012   -0.211032
     28          1           0       -4.382782   -0.439033   -0.883458
 ---------------------------------------------------------------------

 SCF Done:  E(RHF) =  -463.892092460     A.U. after   14 cycles
 E2 =    -0.1985421040D+01 EUMP2 =    -0.46587751350035D+03

 The electronic state is 1-A.
 Alpha  occ. eigenvalues --  -11.23860 -11.23321 -11.23135 -11.23093 -11.22760
 Alpha  occ. eigenvalues --  -11.22666 -11.22639 -11.21960 -11.21861 -11.21616
 Alpha  occ. eigenvalues --  -11.21525 -11.21398  -1.15016  -1.10923  -1.03446
 Alpha  occ. eigenvalues --   -1.00914  -0.99628  -0.97348  -0.84893  -0.83503
 Alpha  occ. eigenvalues --   -0.81156  -0.79411  -0.73985  -0.68665  -0.64797
 Alpha  occ. eigenvalues --   -0.62831  -0.62236  -0.60920  -0.59029  -0.58784
 Alpha  occ. eigenvalues --   -0.57200  -0.53430  -0.52439  -0.52088  -0.51358
 Alpha  occ. eigenvalues --   -0.49185  -0.48588  -0.47467  -0.47337  -0.44490
 Alpha  occ. eigenvalues --   -0.42997  -0.42399  -0.33030  -0.31957
 Alpha virt. eigenvalues --    0.12477   0.12931   0.13941   0.15327   0.16083
 Alpha virt. eigenvalues --    0.16656   0.17483   0.18147   0.19622   0.20283
 Alpha virt. eigenvalues --    0.20758   0.21833   0.22184   0.23351   0.24102

 Mulliken atomic charges:
              1
     1  C   -0.173170
     2  C   -0.154609
     3  C   -0.175629
     4  C    0.034446
     5  C   -0.184731
     6  C   -0.144821
     7  C   -0.078945
     8  C   -0.207766
     9  C   -0.192253
    10  C   -0.191217
    11  C   -0.198683
    12  C   -0.249411
    13  H    0.110076
    14  H    0.100286
    15  H    0.110273
    16  H    0.084605
    17  H    0.125378
    18  H    0.110872
    19  H    0.109766
    20  H    0.117082
    21  H    0.108569
    22  H    0.095899
    23  H    0.094327
    24  H    0.145556
    25  H    0.157738
    26  H    0.147752
    27  H    0.148291
    28  H    0.150318
 Sum of Mulliken atomic charges =   0.00000

 Dipole moment (field-independent basis, Debye):
    X=              0.4209    Y=              0.0926    Z=              0.1242  Tot=              0.4485
 Quadrupole moment (field-independent basis, Debye-Ang):
   XX=            -72.4371   YY=            -71.1524   ZZ=            -77.6196
   XY=             -0.3527   XZ=              2.5443   YZ=              1.3657

 Normal termination of Gaussian 09 at Tue Mar 15 01:03:48 2016.
