 Gaussian 09, Revision A.01,
 Gaussian 09:  EM64L-G09RevA.01  8-May-2009

 -------------
 # mp2/cc-pVTZ
 -------------

 ----------------------------------
 t-butylcyclohexane-eq_single_point
 ----------------------------------
 Symbolic Z-matrix:
 Charge =  0 Multiplicity = 1

                         Standard orientation:
 ---------------------------------------------------------------------
 Center     Atomic      Atomic             Coordinates (Angstroms)
 Number     Number       Type             X           Y           Z
 ---------------------------------------------------------------------
      1          6           0       -0.070551   -0.000052   -0.319479
      2          6           0        0.676460   -1.258178    0.179270
      3          6           0        2.155632   -1.263287   -0.244850
      4          6           0        2.888889    0.000041    0.225274
      5          6           0        2.155536    1.263304   -0.244857
      6          6           0        0.676380    1.258081    0.179317
      7          6           0       -1.611933   -0.000022   -0.016784
      8          6           0       -1.914929   -0.000030    1.496855
      9          6           0       -2.271983   -1.244935   -0.652034
     10          6           0       -2.271770    1.245034   -0.651983
     11          1           0        2.651235   -2.160700    0.146591
     12          1           0        2.215484   -1.328218   -1.341340
     13          1           0        3.924154    0.000082   -0.138501
     14          1           0        2.942989    0.000054    1.323978
     15          1           0        2.215358    1.328238   -1.341349
     16          1           0        2.651068    2.160759    0.146577
     17          1           0        0.623580   -1.305180    1.276390
     18          1           0        0.195204   -2.167261   -0.195568
     19          1           0        0.195016    2.167146   -0.195447
     20          1           0        0.623576    1.305029    1.276438
     21          1           0        0.009452   -0.000012   -1.419855
     22          1           0       -3.361811   -1.192079   -0.546778
     23          1           0       -2.044514   -1.311776   -1.723036
     24          1           0       -1.945752   -2.176223   -0.179501
     25          1           0       -3.361607    1.192413   -0.546672
     26          1           0       -1.945298    2.176245   -0.179456
     27          1           0       -2.044336    1.311851   -1.722991
     28          1           0       -2.998456   -0.000027    1.664387
     29          1           0       -1.507865   -0.885711    1.995877
     30          1           0       -1.507860    0.885636    1.995885
 ---------------------------------------------------------------------

 SCF Done:  E(RHF) =  -390.465211857     A.U. after   11 cycles
 E2 =    -0.1757363980D+01 EUMP2 =    -0.39222257583698D+03

 The electronic state is 1-A.
 Alpha  occ. eigenvalues --  -11.23312 -11.22024 -11.21380 -11.21362 -11.21269
 Alpha  occ. eigenvalues --  -11.21125 -11.21122 -11.20701 -11.20700 -11.20697
 Alpha  occ. eigenvalues --   -1.12285  -1.07528  -0.99593  -0.98108  -0.92483
 Alpha  occ. eigenvalues --   -0.92278  -0.83393  -0.82268  -0.75763  -0.71763
 Alpha  occ. eigenvalues --   -0.64561  -0.60960  -0.60604  -0.59454  -0.58863
 Alpha  occ. eigenvalues --   -0.57872  -0.56982  -0.53646  -0.52313  -0.52172
 Alpha  occ. eigenvalues --   -0.50675  -0.49500  -0.48405  -0.47741  -0.47294
 Alpha  occ. eigenvalues --   -0.45658  -0.45487  -0.43604  -0.41168  -0.40958
 Alpha virt. eigenvalues --    0.13676   0.15358   0.15457   0.16387   0.18461
 Alpha virt. eigenvalues --    0.19368   0.19381   0.19874   0.20427   0.20856
 Alpha virt. eigenvalues --    0.22480   0.23500   0.24117   0.24481   0.24635

 Mulliken atomic charges:
              1
     1  C   -0.047934
     2  C   -0.216670
     3  C   -0.197694
     4  C   -0.184501
     5  C   -0.197694
     6  C   -0.216680
     7  C    0.020553
     8  C   -0.323820
     9  C   -0.322257
    10  C   -0.322261
    11  H    0.106258
    12  H    0.086622
    13  H    0.106869
    14  H    0.084337
    15  H    0.086621
    16  H    0.106256
    17  H    0.090481
    18  H    0.113320
    19  H    0.113322
    20  H    0.090483
    21  H    0.098943
    22  H    0.102358
    23  H    0.100564
    24  H    0.102422
    25  H    0.102356
    26  H    0.102417
    27  H    0.100567
    28  H    0.107172
    29  H    0.103793
    30  H    0.103795
 Sum of Mulliken atomic charges =   0.00000

 Dipole moment (field-independent basis, Debye):
    X=              0.0661    Y=              0.0000    Z=             -0.0098  Tot=              0.0668
 Quadrupole moment (field-independent basis, Debye-Ang):
   XX=            -68.5166   YY=            -68.0744   ZZ=            -67.5709
   XY=             -0.0001   XZ=             -0.0119   YZ=              0.0000

 Normal termination of Gaussian 09 at Mon Mar 14 23:59:47 2016.
