 Gaussian 09, Revision A.01,
 Gaussian 09:  EM64L-G09RevA.01  8-May-2009

 -------------
 # mp2/cc-pVTZ
 -------------

 ----------------------------------
 t-butylcyclohexane-ax_single_point
 ----------------------------------
 Symbolic Z-matrix:
 Charge =  0 Multiplicity = 1

                         Standard orientation:
 ---------------------------------------------------------------------
 Center     Atomic      Atomic             Coordinates (Angstroms)
 Number     Number       Type             X           Y           Z
 ---------------------------------------------------------------------
      1          6           0       -0.170097    0.000034   -0.819322
      2          6           0        0.732136    1.264490   -0.759891
      3          6           0        1.817591    1.263624    0.332763
      4          6           0        2.685304   -0.000028    0.262977
      5          6           0        1.817542   -1.263652    0.332729
      6          6           0        0.732085   -1.264449   -0.759926
      7          6           0       -1.452223    0.000013    0.097649
      8          6           0       -1.177180   -0.000205    1.616665
      9          6           0       -2.311073   -1.243786   -0.232775
     10          6           0       -2.310937    1.243974   -0.232486
     11          1           0        2.442708    2.158395    0.216737
     12          1           0        1.363713    1.334698    1.328638
     13          1           0        3.428825   -0.000049    1.069791
     14          1           0        3.248131   -0.000022   -0.682584
     15          1           0        1.363671   -1.334720    1.328606
     16          1           0        2.442623   -2.158442    0.216661
     17          1           0        1.246561    1.334887   -1.729626
     18          1           0        0.126061    2.172622   -0.683835
     19          1           0        0.125952   -2.172542   -0.683847
     20          1           0        1.246489   -1.334875   -1.729670
     21          1           0       -0.602235    0.000047   -1.831054
     22          1           0       -3.272447   -1.190237    0.290996
     23          1           0       -2.521343   -1.309925   -1.307228
     24          1           0       -1.828334   -2.176722    0.073638
     25          1           0       -3.272376    1.190335    0.291156
     26          1           0       -1.828163    2.176778    0.074274
     27          1           0       -2.521091    1.310456   -1.306941
     28          1           0       -2.127831   -0.000186    2.163914
     29          1           0       -0.619976   -0.886122    1.934913
     30          1           0       -0.619827    0.885530    1.935158
 ---------------------------------------------------------------------

 SCF Done:  E(RHF) =  -390.455013180     A.U. after   11 cycles
 E2 =    -0.1759169682D+01 EUMP2 =    -0.39221418286150D+03

 The electronic state is 1-A.
 Alpha  occ. eigenvalues --  -11.23432 -11.22187 -11.21280 -11.21270 -11.21247
 Alpha  occ. eigenvalues --  -11.21197 -11.21172 -11.20736 -11.20721 -11.20720
 Alpha  occ. eigenvalues --   -1.12000  -1.07306  -0.99500  -0.98453  -0.92467
 Alpha  occ. eigenvalues --   -0.92255  -0.83559  -0.82368  -0.76224  -0.70096
 Alpha  occ. eigenvalues --   -0.64528  -0.62765  -0.60984  -0.60049  -0.58066
 Alpha  occ. eigenvalues --   -0.56704  -0.54521  -0.53994  -0.53645  -0.52265
 Alpha  occ. eigenvalues --   -0.50617  -0.50531  -0.50068  -0.47604  -0.46309
 Alpha  occ. eigenvalues --   -0.45470  -0.45365  -0.41813  -0.41623  -0.41070
 Alpha virt. eigenvalues --    0.13399   0.15281   0.16104   0.16769   0.18336
 Alpha virt. eigenvalues --    0.19015   0.19059   0.19627   0.20612   0.22007
 Alpha virt. eigenvalues --    0.22495   0.23444   0.24163   0.24623   0.26088

 Mulliken atomic charges:
              1
     1  C   -0.107124
     2  C   -0.223701
     3  C   -0.206100
     4  C   -0.183704
     5  C   -0.206099
     6  C   -0.223714
     7  C    0.049230
     8  C   -0.351103
     9  C   -0.321852
    10  C   -0.321860
    11  H    0.111863
    12  H    0.092355
    13  H    0.107327
    14  H    0.083320
    15  H    0.092357
    16  H    0.111863
    17  H    0.102253
    18  H    0.117289
    19  H    0.117288
    20  H    0.102259
    21  H    0.114825
    22  H    0.101996
    23  H    0.100795
    24  H    0.102138
    25  H    0.101998
    26  H    0.102138
    27  H    0.100799
    28  H    0.112323
    29  H    0.110419
    30  H    0.110423
 Sum of Mulliken atomic charges =   0.00000

 Dipole moment (field-independent basis, Debye):
    X=              0.0189    Y=              0.0000    Z=             -0.0550  Tot=              0.0581
 Quadrupole moment (field-independent basis, Debye-Ang):
   XX=            -68.3893   YY=            -68.1240   ZZ=            -67.5433
   XY=              0.0000   XZ=             -0.3621   YZ=              0.0000

 Normal termination of Gaussian 09 at Mon Mar 14 23:09:59 2016.
