 Gaussian 09, Revision A.01,
 Gaussian 09:  EM64L-G09RevA.01  8-May-2009

 -------------
 # mp2/cc-pVTZ
 -------------

 -----------------------------------------
 trans1-2difluorocycloh-eq-eq_single_point
 -----------------------------------------
 Symbolic Z-matrix:
 Charge =  0 Multiplicity = 1

                         Standard orientation:
 ---------------------------------------------------------------------
 Center     Atomic      Atomic             Coordinates (Angstroms)
 Number     Number       Type             X           Y           Z
 ---------------------------------------------------------------------
      1          6           0       -1.876719    0.706524   -0.302109
      2          6           0       -1.876705   -0.706559    0.302100
      3          6           0       -0.604063   -1.473756   -0.093019
      4          6           0        0.656730   -0.702199    0.290549
      5          6           0        0.656707    0.702216   -0.290544
      6          6           0       -0.604109    1.473739    0.093035
      7          9           0        1.780866   -1.401812   -0.192103
      8          9           0        1.780836    1.401844    0.192093
      9          1           0       -0.570883   -2.461243    0.378946
     10          1           0       -0.588383   -1.638141   -1.178538
     11          1           0        0.777387   -0.642042    1.379396
     12          1           0        0.777343    0.642063   -1.379393
     13          1           0       -1.941256   -0.634964    1.396817
     14          1           0       -2.759957   -1.265624   -0.026271
     15          1           0       -0.570961    2.461226   -0.378930
     16          1           0       -0.588417    1.638140    1.178550
     17          1           0       -1.941260    0.634928   -1.396827
     18          1           0       -2.759980    1.265582    0.026253
 ---------------------------------------------------------------------

 SCF Done:  E(RHF) =  -432.072082347     A.U. after   11 cycles
 E2 =    -0.1519074751D+01 EUMP2 =    -0.43359115709807D+03

 The electronic state is 1-A.
 Alpha  occ. eigenvalues --  -26.26918 -26.26918 -11.31743 -11.31677 -11.24131
 Alpha  occ. eigenvalues --  -11.24082 -11.24025 -11.24015  -1.58198  -1.57028
 Alpha  occ. eigenvalues --   -1.13533  -1.02515  -1.01717  -0.86449  -0.85367
 Alpha  occ. eigenvalues --   -0.79374  -0.70560  -0.70328  -0.68153  -0.66986
 Alpha  occ. eigenvalues --   -0.65590  -0.62132  -0.61194  -0.59305  -0.58963
 Alpha  occ. eigenvalues --   -0.55560  -0.51070  -0.50864  -0.50251  -0.48406
 Alpha  occ. eigenvalues --   -0.47594  -0.45608
 Alpha virt. eigenvalues --    0.12772   0.14048   0.15876   0.17710   0.20227
 Alpha virt. eigenvalues --    0.20278   0.21162   0.21525   0.22501   0.23807
 Alpha virt. eigenvalues --    0.27995   0.28063   0.32287   0.33563   0.34947

 Mulliken atomic charges:
              1
     1  C   -0.211903
     2  C   -0.211905
     3  C   -0.229112
     4  C    0.226083
     5  C    0.226082
     6  C   -0.229114
     7  F   -0.316321
     8  F   -0.316319
     9  H    0.123429
    10  H    0.101013
    11  H    0.089841
    12  H    0.089839
    13  H    0.097806
    14  H    0.119165
    15  H    0.123427
    16  H    0.101017
    17  H    0.097807
    18  H    0.119165
 Sum of Mulliken atomic charges =   0.00000

 Dipole moment (field-independent basis, Debye):
    X=             -3.8755    Y=              0.0000    Z=              0.0000  Tot=              3.8755
 Quadrupole moment (field-independent basis, Debye-Ang):
   XX=            -54.7353   YY=            -50.2635   ZZ=            -45.7775
   XY=             -0.0001   XZ=              0.0001   YZ=             -1.5857

 Normal termination of Gaussian 09 at Mon Feb 15 00:16:54 2016.
