 Gaussian 09, Revision A.01,
 Gaussian 09:  EM64L-G09RevA.01  8-May-2009

 -------------
 # mp2/cc-pVTZ
 -------------

 -----------------------------------------
 trans1-2dimethylcycloh-eq-eq_single_point
 -----------------------------------------
 Symbolic Z-matrix:
 Charge =  0 Multiplicity = 1

                         Standard orientation:
 ---------------------------------------------------------------------
 Center     Atomic      Atomic             Coordinates (Angstroms)
 Number     Number       Type             X           Y           Z
 ---------------------------------------------------------------------
      1          6           0        1.949073   -0.710772   -0.289184
      2          6           0        1.949092    0.710766    0.289197
      3          6           0        0.673854    1.466683   -0.106825
      4          6           0       -0.616828    0.719955    0.288390
      5          6           0       -0.616838   -0.719952   -0.288394
      6          6           0        0.673844   -1.466691    0.106803
      7          6           0       -1.850784    1.535664   -0.126500
      8          6           0       -1.850792   -1.535651    0.126510
      9          1           0        0.670081    1.625443   -1.196403
     10          1           0        0.669892    2.465396    0.349260
     11          1           0       -0.624753    0.627985    1.387565
     12          1           0       -0.624770   -0.627978   -1.387569
     13          1           0        2.836110    1.262466   -0.046702
     14          1           0        2.012247    0.655205    1.385905
     15          1           0        0.670078   -1.625467    1.196379
     16          1           0        0.669868   -2.465405   -0.349283
     17          1           0        2.836084   -1.262487    0.046715
     18          1           0        2.012225   -0.655217   -1.385893
     19          1           0       -1.784053    2.559959    0.258218
     20          1           0       -1.929113    1.598102   -1.219695
     21          1           0       -2.782211    1.104135    0.251652
     22          1           0       -1.784060   -2.559955   -0.258186
     23          1           0       -1.929123   -1.598067    1.219706
     24          1           0       -2.782219   -1.104130   -0.251652
 ---------------------------------------------------------------------

 SCF Done:  E(RHF) =  -312.379357242     A.U. after   11 cycles
 E2 =    -0.1399025565D+01 EUMP2 =    -0.31377838280691D+03

 The electronic state is 1-A.
 Alpha  occ. eigenvalues --  -11.22114 -11.22057 -11.21392 -11.21338 -11.21253
 Alpha  occ. eigenvalues --  -11.21248 -11.20829 -11.20829  -1.11925  -1.03046
 Alpha  occ. eigenvalues --   -1.01807  -0.93464  -0.89219  -0.80999  -0.78925
 Alpha  occ. eigenvalues --   -0.74480  -0.62621  -0.60936  -0.60459  -0.59126
 Alpha  occ. eigenvalues --   -0.58499  -0.54424  -0.53039  -0.51453  -0.50686
 Alpha  occ. eigenvalues --   -0.50240  -0.47837  -0.46815  -0.46248  -0.44316
 Alpha  occ. eigenvalues --   -0.41665  -0.41634
 Alpha virt. eigenvalues --    0.14338   0.15216   0.15475   0.16098   0.19389
 Alpha virt. eigenvalues --    0.19844   0.20733   0.20854   0.22291   0.22984
 Alpha virt. eigenvalues --    0.23225   0.24252   0.24357   0.26729   0.26729

 Mulliken atomic charges:
              1
     1  C   -0.193866
     2  C   -0.193870
     3  C   -0.195340
     4  C   -0.062574
     5  C   -0.062574
     6  C   -0.195336
     7  C   -0.320872
     8  C   -0.320872
     9  H    0.085434
    10  H    0.104678
    11  H    0.095718
    12  H    0.095718
    13  H    0.107150
    14  H    0.085986
    15  H    0.085431
    16  H    0.104679
    17  H    0.107146
    18  H    0.085984
    19  H    0.100860
    20  H    0.089306
    21  H    0.103524
    22  H    0.100859
    23  H    0.089306
    24  H    0.103524
 Sum of Mulliken atomic charges =   0.00000

 Dipole moment (field-independent basis, Debye):
    X=              0.0813    Y=              0.0000    Z=              0.0000  Tot=              0.0813
 Quadrupole moment (field-independent basis, Debye-Ang):
   XX=            -54.9539   YY=            -54.7047   ZZ=            -53.5372
   XY=              0.0001   XZ=              0.0001   YZ=              0.3266

 Normal termination of Gaussian 09 at Mon Feb 15 01:47:53 2016.
