 Gaussian 09, Revision A.01,
 Gaussian 09:  EM64L-G09RevA.01  8-May-2009

 -------------
 # mp2/cc-pVTZ
 -------------

 -----------------------------------------
 trans1-2difluorocycloh-ax-ax_single_point
 -----------------------------------------
 Symbolic Z-matrix:
 Charge =  0 Multiplicity = 1

                         Standard orientation:
 ---------------------------------------------------------------------
 Center     Atomic      Atomic             Coordinates (Angstroms)
 Number     Number       Type             X           Y           Z
 ---------------------------------------------------------------------
      1          6           0        1.625196   -0.745810    0.186932
      2          6           0        1.625440    0.745316   -0.186889
      3          6           0        0.357829    1.122201   -0.971513
      4          6           0       -0.916328    0.728830   -0.237437
      5          6           0       -0.916573   -0.728554    0.237411
      6          6           0        0.357425   -1.122306    0.971553
      7          9           0       -1.050649    1.523772    0.930110
      8          9           0       -1.051048   -1.523455   -0.930154
      9          1           0        0.323769    2.197059   -1.181316
     10          1           0        0.348845    0.604111   -1.939261
     11          1           0       -1.806585    0.919578   -0.845181
     12          1           0       -1.806934   -0.919020    0.845090
     13          1           0        1.682247    1.354047    0.724405
     14          1           0        2.511473    0.988017   -0.784458
     15          1           0        0.323011   -2.197152    1.181353
     16          1           0        0.348523   -0.604213    1.939298
     17          1           0        1.681837   -1.354536   -0.724379
     18          1           0        2.511154   -0.988794    0.784505
 ---------------------------------------------------------------------

 SCF Done:  E(RHF) =  -432.072337459     A.U. after   11 cycles
 E2 =    -0.1519138092D+01 EUMP2 =    -0.43359147555108D+03

 The electronic state is 1-A.
 Alpha  occ. eigenvalues --  -26.27493 -26.27493 -11.31842 -11.31780 -11.23359
 Alpha  occ. eigenvalues --  -11.23359 -11.22863 -11.22804  -1.58331  -1.57753
 Alpha  occ. eigenvalues --   -1.12250  -1.02376  -1.01408  -0.86016  -0.85530
 Alpha  occ. eigenvalues --   -0.76779  -0.72244  -0.69884  -0.69424  -0.67392
 Alpha  occ. eigenvalues --   -0.63302  -0.61679  -0.61200  -0.59991  -0.57532
 Alpha  occ. eigenvalues --   -0.53959  -0.52726  -0.51919  -0.51276  -0.47210
 Alpha  occ. eigenvalues --   -0.45058  -0.44658
 Alpha virt. eigenvalues --    0.13797   0.16086   0.16242   0.17554   0.19564
 Alpha virt. eigenvalues --    0.20051   0.21122   0.22225   0.22947   0.24558
 Alpha virt. eigenvalues --    0.25090   0.31132   0.31659   0.34154   0.34500

 Mulliken atomic charges:
              1
     1  C   -0.203065
     2  C   -0.203060
     3  C   -0.208175
     4  C    0.202443
     5  C    0.202442
     6  C   -0.208180
     7  F   -0.340930
     8  F   -0.340934
     9  H    0.116783
    10  H    0.105253
    11  H    0.111678
    12  H    0.111682
    13  H    0.101884
    14  H    0.114125
    15  H    0.116784
    16  H    0.105258
    17  H    0.101887
    18  H    0.114125
 Sum of Mulliken atomic charges =   0.00000

 Dipole moment (field-independent basis, Debye):
    X=              0.9609    Y=             -0.0001    Z=              0.0000  Tot=              0.9609
 Quadrupole moment (field-independent basis, Debye-Ang):
   XX=            -47.0698   YY=            -51.7610   ZZ=            -48.8232
   XY=             -0.0005   XZ=             -0.0010   YZ=             -5.4352

 Normal termination of Gaussian 09 at Sun Feb 14 23:53:57 2016.
