 Gaussian 09, Revision A.01,
 Gaussian 09:  EM64L-G09RevA.01  8-May-2009

 -------------
 # mp2/cc-pVTZ
 -------------

 -----------------------------------------
 trans1-2dimethylcycloh-ax-ax_single_point
 -----------------------------------------
 Symbolic Z-matrix:
 Charge =  0 Multiplicity = 1

                         Standard orientation:
 ---------------------------------------------------------------------
 Center     Atomic      Atomic             Coordinates (Angstroms)
 Number     Number       Type             X           Y           Z
 ---------------------------------------------------------------------
      1          6           0       -0.710504    1.683319   -0.290521
      2          6           0        0.712150    1.682613    0.290572
      3          6           0        0.978915    0.407880    1.108836
      4          6           0        0.711446   -0.891688    0.313346
      5          6           0       -0.712301   -0.891003   -0.313366
      6          6           0       -0.978551    0.408861   -1.108790
      7          6           0        1.804577   -1.157000   -0.737675
      8          6           0       -1.805694   -1.155435    0.737612
      9          1           0        0.339342    0.423069    2.001838
     10          1           0        2.013289    0.403301    1.476712
     11          1           0        0.752304   -1.727254    1.027327
     12          1           0       -0.753909   -1.726472   -1.027416
     13          1           0        0.866430    2.567465    0.920762
     14          1           0        1.438859    1.760393   -0.529855
     15          1           0       -0.338984    0.423462   -2.001805
     16          1           0       -2.012941    0.405289   -1.476637
     17          1           0       -0.863899    2.568332   -0.920702
     18          1           0       -1.437131    1.761825    0.529908
     19          1           0        1.634544   -2.114431   -1.243719
     20          1           0        1.841783   -0.380518   -1.508799
     21          1           0        2.793982   -1.200082   -0.267459
     22          1           0       -1.636530   -2.113066    1.243569
     23          1           0       -1.842234   -0.379003    1.508817
     24          1           0       -2.795129   -1.197585    0.267372
 ---------------------------------------------------------------------

 SCF Done:  E(RHF) =  -312.373923749     A.U. after   11 cycles
 E2 =    -0.1400403726D+01 EUMP2 =    -0.31377432747485D+03

 The electronic state is 1-A.
 Alpha  occ. eigenvalues --  -11.22087 -11.22032 -11.21353 -11.21303 -11.21242
 Alpha  occ. eigenvalues --  -11.21233 -11.20817 -11.20817  -1.11803  -1.02420
 Alpha  occ. eigenvalues --   -1.01496  -0.94524  -0.88423  -0.80989  -0.80914
 Alpha  occ. eigenvalues --   -0.70630  -0.65129  -0.61805  -0.60628  -0.57609
 Alpha  occ. eigenvalues --   -0.56094  -0.54935  -0.54533  -0.53565  -0.50107
 Alpha  occ. eigenvalues --   -0.49339  -0.47754  -0.46828  -0.46607  -0.43079
 Alpha  occ. eigenvalues --   -0.41773  -0.41396
 Alpha virt. eigenvalues --    0.13397   0.15540   0.16317   0.16484   0.19329
 Alpha virt. eigenvalues --    0.19754   0.20020   0.20424   0.21762   0.22646
 Alpha virt. eigenvalues --    0.23856   0.24938   0.25937   0.26066   0.28266

 Mulliken atomic charges:
              1
     1  C   -0.202229
     2  C   -0.202238
     3  C   -0.213141
     4  C   -0.079998
     5  C   -0.080006
     6  C   -0.213146
     7  C   -0.314520
     8  C   -0.314515
     9  H    0.102174
    10  H    0.108209
    11  H    0.105765
    12  H    0.105764
    13  H    0.111408
    14  H    0.090470
    15  H    0.102174
    16  H    0.108211
    17  H    0.111405
    18  H    0.090469
    19  H    0.100391
    20  H    0.091646
    21  H    0.099835
    22  H    0.100391
    23  H    0.091648
    24  H    0.099834
 Sum of Mulliken atomic charges =   0.00000

 Dipole moment (field-independent basis, Debye):
    X=              0.0000    Y=             -0.0256    Z=              0.0000  Tot=              0.0256
 Quadrupole moment (field-independent basis, Debye-Ang):
   XX=            -54.5860   YY=            -54.1644   ZZ=            -54.1774
   XY=              0.0002   XZ=              0.2385   YZ=             -0.0002

 Normal termination of Gaussian 09 at Mon Feb 15 01:02:36 2016.
