 Gaussian 09, Revision A.01,
 Gaussian 09:  EM64L-G09RevA.01  8-May-2009

 -------------
 # mp2/cc-pVTZ
 -------------

 -----------------------------------------
 trans1-2dichlorocycloh-ax-ax_single_point
 -----------------------------------------
 Symbolic Z-matrix:
 Charge =  0 Multiplicity = 1

                         Standard orientation:
 ---------------------------------------------------------------------
 Center     Atomic      Atomic             Coordinates (Angstroms)
 Number     Number       Type             X           Y           Z
 ---------------------------------------------------------------------
      1          6           0       -0.588268    1.902125   -0.494613
      2          6           0        0.588584    1.902020    0.494629
      3          6           0        0.591139    0.633735    1.361337
      4          6           0        0.547683   -0.654704    0.538656
      5          6           0       -0.547766   -0.654642   -0.538643
      6          6           0       -0.591107    0.633824   -1.361297
      7         17           0        2.159379   -0.926154   -0.320241
      8         17           0       -2.159506   -0.925979    0.320214
      9          1           0       -0.299789    0.625162    2.002980
     10          1           0        1.461440    0.608307    2.024416
     11          1           0        0.443845   -1.530598    1.179043
     12          1           0       -0.443988   -1.530527   -1.179054
     13          1           0        0.538443    2.783302    1.144155
     14          1           0        1.535132    1.969554   -0.056194
     15          1           0        0.299725    0.625100   -2.003071
     16          1           0       -1.461494    0.608535   -2.024267
     17          1           0       -0.537925    2.783375   -1.144164
     18          1           0       -1.534806    1.969902    0.056200
 ---------------------------------------------------------------------

 SCF Done:  E(RHF) =  -1152.16391282     A.U. after   13 cycles
 E2 =    -0.1406185538D+01 EUMP2 =    -0.11535700983613D+04

 The electronic state is 1-A.
 Alpha  occ. eigenvalues -- -104.82469-104.82469 -11.31575 -11.31515 -11.24216
 Alpha  occ. eigenvalues --  -11.24216 -11.23209 -11.23149 -10.54968 -10.54968
 Alpha  occ. eigenvalues --   -8.01632  -8.01632  -8.01474  -8.01474  -8.01470
 Alpha  occ. eigenvalues --   -8.01470  -1.18264  -1.10893  -1.07796  -1.01596
 Alpha  occ. eigenvalues --   -0.97755  -0.85410  -0.84682  -0.73968  -0.69022
 Alpha  occ. eigenvalues --   -0.64193  -0.62348  -0.59484  -0.57374  -0.56390
 Alpha  occ. eigenvalues --   -0.56069  -0.51110  -0.50531  -0.47602  -0.47327
 Alpha  occ. eigenvalues --   -0.46555  -0.45200  -0.43506  -0.43381  -0.42670
 Alpha virt. eigenvalues --    0.13177   0.15029   0.15617   0.16337   0.17598
 Alpha virt. eigenvalues --    0.19078   0.19495   0.19818   0.22648   0.22821
 Alpha virt. eigenvalues --    0.24084   0.24142   0.29227   0.30539   0.31692

 Mulliken atomic charges:
              1
     1  C   -0.205252
     2  C   -0.205254
     3  C   -0.190083
     4  C   -0.013687
     5  C   -0.013690
     6  C   -0.190087
     7  Cl  -0.237567
     8  Cl  -0.237568
     9  H    0.122641
    10  H    0.129538
    11  H    0.167446
    12  H    0.167446
    13  H    0.117707
    14  H    0.109264
    15  H    0.122645
    16  H    0.129537
    17  H    0.117705
    18  H    0.109261
 Sum of Mulliken atomic charges =   0.00000

 Dipole moment (field-independent basis, Debye):
    X=              0.0001    Y=              1.3236    Z=              0.0000  Tot=              1.3236
 Quadrupole moment (field-independent basis, Debye-Ang):
   XX=            -72.3219   YY=            -63.2025   ZZ=            -61.0639
   XY=              0.0003   XZ=              2.0450   YZ=             -0.0001

 Normal termination of Gaussian 09 at Sun Feb 14 23:01:22 2016.
