 Gaussian 09, Revision A.01,
 Gaussian 09:  EM64L-G09RevA.01  8-May-2009

 -------------
 # mp2/cc-pVTZ
 -------------

 -----------------------------------------
 trans1-2dichlorocycloh-eq-eq_single_point
 -----------------------------------------
 Symbolic Z-matrix:
 Charge =  0 Multiplicity = 1

                         Standard orientation:
 ---------------------------------------------------------------------
 Center     Atomic      Atomic             Coordinates (Angstroms)
 Number     Number       Type             X           Y           Z
 ---------------------------------------------------------------------
      1          6           0        2.377865    0.681535    0.351605
      2          6           0        2.377857   -0.681530   -0.351596
      3          6           0        1.107913   -1.474516   -0.005361
      4          6           0       -0.163227   -0.683481   -0.343646
      5          6           0       -0.163217    0.683474    0.343649
      6          6           0        1.107903    1.474525    0.005349
      7         17           0       -1.620806   -1.672084    0.141313
      8         17           0       -1.620812    1.672081   -0.141312
      9          1           0        1.099347   -1.712467    1.065816
     10          1           0        1.080658   -2.428039   -0.541898
     11          1           0       -0.260044   -0.548359   -1.424225
     12          1           0       -0.260046    0.548366    1.424228
     13          1           0        3.259546   -1.266201   -0.065122
     14          1           0        2.438969   -0.534082   -1.438898
     15          1           0        1.099348    1.712463   -1.065831
     16          1           0        1.080636    2.428050    0.541880
     17          1           0        3.259540    1.266212    0.065112
     18          1           0        2.438988    0.534071    1.438903
 ---------------------------------------------------------------------

 SCF Done:  E(RHF) =  -1152.16338773     A.U. after   12 cycles
 E2 =    -0.1405308410D+01 EUMP2 =    -0.11535686961383D+04

 The electronic state is 1-A.
 Alpha  occ. eigenvalues -- -104.81891-104.81890 -11.31278 -11.31216 -11.24745
 Alpha  occ. eigenvalues --  -11.24745 -11.24258 -11.24198 -10.54386 -10.54386
 Alpha  occ. eigenvalues --   -8.01055  -8.01054  -8.00888  -8.00888  -8.00885
 Alpha  occ. eigenvalues --   -8.00885  -1.18250  -1.10576  -1.09253  -1.00994
 Alpha  occ. eigenvalues --   -0.97915  -0.85512  -0.83437  -0.78625  -0.66231
 Alpha  occ. eigenvalues --   -0.63841  -0.63241  -0.61571  -0.57816  -0.55229
 Alpha  occ. eigenvalues --   -0.54668  -0.52682  -0.51886  -0.48454  -0.47182
 Alpha  occ. eigenvalues --   -0.47118  -0.44169  -0.43769  -0.42699  -0.41971
 Alpha virt. eigenvalues --    0.11857   0.13936   0.15687   0.16510   0.19349
 Alpha virt. eigenvalues --    0.19478   0.20157   0.20860   0.21452   0.21502
 Alpha virt. eigenvalues --    0.22311   0.23639   0.29252   0.30977   0.31018

 Mulliken atomic charges:
              1
     1  C   -0.207270
     2  C   -0.207264
     3  C   -0.193428
     4  C    0.005250
     5  C    0.005249
     6  C   -0.193429
     7  Cl  -0.219739
     8  Cl  -0.219750
     9  H    0.110208
    10  H    0.133457
    11  H    0.151427
    12  H    0.151431
    13  H    0.121069
    14  H    0.099022
    15  H    0.110211
    16  H    0.133459
    17  H    0.121071
    18  H    0.099026
 Sum of Mulliken atomic charges =   0.00000

 Dipole moment (field-independent basis, Debye):
    X=              4.1132    Y=              0.0000    Z=              0.0000  Tot=              4.1132
 Quadrupole moment (field-independent basis, Debye-Ang):
   XX=            -66.6214   YY=            -67.3587   ZZ=            -61.9878
   XY=              0.0002   XZ=              0.0000   YZ=              1.0404

 Normal termination of Gaussian 09 at Sun Feb 14 23:30:24 2016.
