 Gaussian 09, Revision A.01,
 Gaussian 09:  EM64L-G09RevA.01  8-May-2009

 -------------
 # mp2/cc-pVTZ
 -------------

 -----------------------------------------
 trimethylsilylcyclohexane-eq_single_point
 -----------------------------------------
 Symbolic Z-matrix:
 Charge =  0 Multiplicity = 1

                         Standard orientation:
 ---------------------------------------------------------------------
 Center     Atomic      Atomic             Coordinates (Angstroms)
 Number     Number       Type             X           Y           Z
 ---------------------------------------------------------------------
      1          6           0        0.267882   -0.000010   -0.381012
      2          6           0        0.996491   -1.268049    0.124425
      3          6           0        2.491433   -1.268260   -0.242148
      4          6           0        3.198877    0.000000    0.258334
      5          6           0        2.491445    1.268263   -0.242159
      6          6           0        0.996504    1.268071    0.124414
      7         14           0       -1.608368    0.000003   -0.009539
      8          6           0       -2.403685   -1.541423   -0.778621
      9          6           0       -1.933514   -0.000014    1.859427
     10          6           0       -2.403726    1.541428   -0.778595
     11          1           0        2.979258   -2.162379    0.167284
     12          1           0        2.591591   -1.329946   -1.335823
     13          1           0        4.249753    0.000000   -0.057576
     14          1           0        3.204224    0.000000    1.358531
     15          1           0        2.591589    1.329929   -1.335833
     16          1           0        2.979269    2.162380    0.167280
     17          1           0        0.902368   -1.330552    1.219139
     18          1           0        0.521046   -2.170961   -0.278447
     19          1           0        0.521064    2.170976   -0.278482
     20          1           0        0.902382    1.330602    1.219125
     21          1           0        0.339896   -0.000012   -1.483422
     22          1           0       -3.010893   -0.000007    2.063467
     23          1           0       -1.506063   -0.885065    2.344457
     24          1           0       -1.506054    0.885014    2.344492
     25          1           0       -3.490349    1.532433   -0.631868
     26          1           0       -2.019264    2.465681   -0.332541
     27          1           0       -2.216752    1.590127   -1.858078
     28          1           0       -3.490327   -1.532444   -0.632034
     29          1           0       -2.216567   -1.590209   -1.858074
     30          1           0       -2.019260   -2.465642   -0.332460
 ---------------------------------------------------------------------

 SCF Done:  E(RHF) =  -641.569940416     A.U. after   11 cycles
 E2 =    -0.1703195806D+01 EUMP2 =    -0.64327313622253D+03

 The electronic state is 1-A.
 Alpha  occ. eigenvalues --  -68.74750 -11.21681 -11.21681 -11.21389 -11.21346
 Alpha  occ. eigenvalues --  -11.21305 -11.20293 -11.19457 -11.19447 -11.19446
 Alpha  occ. eigenvalues --   -6.09459  -4.20085  -4.20082  -4.20063  -1.10391
 Alpha  occ. eigenvalues --   -0.99614  -0.99558  -0.95209  -0.91644  -0.91608
 Alpha  occ. eigenvalues --   -0.82446  -0.81815  -0.74618  -0.64859  -0.61678
 Alpha  occ. eigenvalues --   -0.59597  -0.59227  -0.57480  -0.55757  -0.55534
 Alpha  occ. eigenvalues --   -0.55367  -0.53710  -0.53159  -0.52612  -0.51706
 Alpha  occ. eigenvalues --   -0.50791  -0.48297  -0.47692  -0.47159  -0.44610
 Alpha  occ. eigenvalues --   -0.43079  -0.41929  -0.41350  -0.37624
 Alpha virt. eigenvalues --    0.12643   0.14962   0.15103   0.16002   0.18178
 Alpha virt. eigenvalues --    0.18254   0.18387   0.19421   0.20142   0.20322
 Alpha virt. eigenvalues --    0.22194   0.22880   0.23522   0.23617   0.24352

 Mulliken atomic charges:
              1
     1  C   -0.168035
     2  C   -0.223122
     3  C   -0.192331
     4  C   -0.185163
     5  C   -0.192329
     6  C   -0.223129
     7  Si   0.439090
     8  C   -0.433292
     9  C   -0.428472
    10  C   -0.433289
    11  H    0.104717
    12  H    0.086556
    13  H    0.106604
    14  H    0.084275
    15  H    0.086557
    16  H    0.104717
    17  H    0.094713
    18  H    0.117229
    19  H    0.117229
    20  H    0.094715
    21  H    0.094150
    22  H    0.107340
    23  H    0.105530
    24  H    0.105531
    25  H    0.105988
    26  H    0.105413
    27  H    0.103703
    28  H    0.105992
    29  H    0.103705
    30  H    0.105410
 Sum of Mulliken atomic charges =   0.00000

 Dipole moment (field-independent basis, Debye):
    X=              0.0933    Y=              0.0000    Z=             -0.0554  Tot=              0.1085
 Quadrupole moment (field-independent basis, Debye-Ang):
   XX=            -75.5808   YY=            -75.6503   ZZ=            -74.8837
   XY=              0.0000   XZ=             -0.0888   YZ=              0.0001

 Normal termination of Gaussian 09 at Mon Feb 15 04:43:35 2016.
