 Gaussian 09, Revision A.01,
 Gaussian 09:  EM64L-G09RevA.01  8-May-2009

 -------------
 # mp2/cc-pVTZ
 -------------

 -----------------------------------------
 trimethylsilylcyclohexane-ax_single_point
 -----------------------------------------
 Symbolic Z-matrix:
 Charge =  0 Multiplicity = 1

                         Standard orientation:
 ---------------------------------------------------------------------
 Center     Atomic      Atomic             Coordinates (Angstroms)
 Number     Number       Type             X           Y           Z
 ---------------------------------------------------------------------
      1          6           0        0.200507    0.000033   -0.972519
      2          6           0        1.084929    1.269095   -0.869428
      3          6           0        2.007990    1.269692    0.361093
      4          6           0        2.871552   -0.000013    0.417697
      5          6           0        2.008013   -1.269729    0.360985
      6          6           0        1.084910   -1.269021   -0.869517
      7         14           0       -1.404811    0.000007    0.083892
      8          6           0       -2.411961   -1.539553   -0.385240
      9          6           0       -1.174942   -0.000443    1.969163
     10          6           0       -2.411657    1.539950   -0.384645
     11          1           0        2.648393    2.160735    0.341281
     12          1           0        1.409120    1.339706    1.278700
     13          1           0        3.490483   -0.000046    1.323768
     14          1           0        3.566324    0.000032   -0.435350
     15          1           0        1.409166   -1.339825    1.278599
     16          1           0        2.648416   -2.160769    0.341078
     17          1           0        1.718047    1.326521   -1.768812
     18          1           0        0.468079    2.176292   -0.877577
     19          1           0        0.468035   -2.176201   -0.877688
     20          1           0        1.718000   -1.326432   -1.768921
     21          1           0       -0.234504    0.000088   -1.986436
     22          1           0       -2.156804   -0.000387    2.458781
     23          1           0       -0.633091   -0.885529    2.319562
     24          1           0       -0.632747    0.884235    2.320048
     25          1           0       -3.393044    1.521564    0.104218
     26          1           0       -1.911933    2.466610   -0.080264
     27          1           0       -2.582293    1.594739   -1.466385
     28          1           0       -3.393309   -1.521250    0.103703
     29          1           0       -2.582670   -1.593808   -1.466997
     30          1           0       -1.912360   -2.466435   -0.081332
 ---------------------------------------------------------------------

 SCF Done:  E(RHF) =  -641.564217993     A.U. after   11 cycles
 E2 =    -0.1705114578D+01 EUMP2 =    -0.64326933257146D+03

 The electronic state is 1-A.
 Alpha  occ. eigenvalues --  -68.74935 -11.21701 -11.21700 -11.21447 -11.21402
 Alpha  occ. eigenvalues --  -11.21363 -11.20537 -11.19580 -11.19402 -11.19401
 Alpha  occ. eigenvalues --   -6.09611  -4.20239  -4.20238  -4.20212  -1.10328
 Alpha  occ. eigenvalues --   -0.99622  -0.99588  -0.95420  -0.91681  -0.91566
 Alpha  occ. eigenvalues --   -0.82440  -0.82198  -0.74015  -0.64486  -0.61901
 Alpha  occ. eigenvalues --   -0.60812  -0.59636  -0.57089  -0.55474  -0.55194
 Alpha  occ. eigenvalues --   -0.54282  -0.53694  -0.53628  -0.52683  -0.51733
 Alpha  occ. eigenvalues --   -0.51398  -0.50933  -0.47729  -0.46006  -0.43048
 Alpha  occ. eigenvalues --   -0.42981  -0.41506  -0.41334  -0.38356
 Alpha virt. eigenvalues --    0.12459   0.14762   0.15799   0.15920   0.18082
 Alpha virt. eigenvalues --    0.18421   0.18457   0.18941   0.20271   0.21196
 Alpha virt. eigenvalues --    0.22034   0.22687   0.23435   0.23903   0.25116

 Mulliken atomic charges:
              1
     1  C   -0.207135
     2  C   -0.220363
     3  C   -0.203939
     4  C   -0.185264
     5  C   -0.203948
     6  C   -0.220349
     7  Si   0.431151
     8  C   -0.430701
     9  C   -0.441773
    10  C   -0.430712
    11  H    0.112400
    12  H    0.092463
    13  H    0.107297
    14  H    0.085116
    15  H    0.092467
    16  H    0.112402
    17  H    0.100662
    18  H    0.116905
    19  H    0.116896
    20  H    0.100665
    21  H    0.110065
    22  H    0.114278
    23  H    0.110092
    24  H    0.110107
    25  H    0.106447
    26  H    0.104528
    27  H    0.104637
    28  H    0.106445
    29  H    0.104632
    30  H    0.104529
 Sum of Mulliken atomic charges =   0.00000

 Dipole moment (field-independent basis, Debye):
    X=              0.1305    Y=              0.0000    Z=             -0.0594  Tot=              0.1434
 Quadrupole moment (field-independent basis, Debye-Ang):
   XX=            -75.4167   YY=            -75.6982   ZZ=            -74.9706
   XY=             -0.0001   XZ=             -0.4418   YZ=             -0.0001

 Normal termination of Gaussian 09 at Mon Feb 15 03:18:16 2016.
