 Gaussian 09, Revision A.01,
 Gaussian 09:  EM64L-G09RevA.01  8-May-2009

 -------------
 # mp2/cc-pVTZ
 -------------

 -----------------------
 Et_P_Me2_a_single_point
 -----------------------
 Symbolic Z-matrix:
 Charge =  0 Multiplicity = 1

                         Standard orientation:
 ---------------------------------------------------------------------
 Center     Atomic      Atomic             Coordinates (Angstroms)
 Number     Number       Type             X           Y           Z
 ---------------------------------------------------------------------
      1          6           0        1.017069    1.427046    0.496507
      2         15           0        0.669812   -0.000002   -0.657170
      3          6           0        1.017118   -1.427016    0.496533
      4          6           0       -1.209702   -0.000029   -0.707999
      5          6           0       -2.002522   -0.000004    0.605074
      6          1           0       -1.484852    0.873580   -1.313198
      7          1           0       -1.484829   -0.873678   -1.313149
      8          1           0       -3.080246   -0.000060    0.403070
      9          1           0       -1.786220   -0.884541    1.212979
     10          1           0       -1.786297    0.884607    1.212901
     11          1           0        2.097727    1.491712    0.659270
     12          1           0        0.698625    2.363465    0.026672
     13          1           0        0.525296    1.334954    1.471141
     14          1           0        2.097763   -1.491495    0.659453
     15          1           0        0.525178   -1.335021    1.471090
     16          1           0        0.698899   -2.363477    0.026630
 ---------------------------------------------------------------------

 SCF Done:  E(RHF) =  -498.688670871     A.U. after   11 cycles
 E2 =    -0.8735801646D+00 EUMP2 =    -0.49956225103574D+03

 The electronic state is 1-A.
 Alpha  occ. eigenvalues --  -79.92835 -11.22633 -11.21996 -11.21891 -11.21891
 Alpha  occ. eigenvalues --   -7.46811  -5.36185  -5.36183  -5.36074  -1.03782
 Alpha  occ. eigenvalues --   -0.97570  -0.92961  -0.85489  -0.70376  -0.61102
 Alpha  occ. eigenvalues --   -0.59737  -0.57565  -0.55329  -0.54400  -0.54128
 Alpha  occ. eigenvalues --   -0.52271  -0.49652  -0.44550  -0.42926  -0.32470
 Alpha virt. eigenvalues --    0.13216   0.15316   0.15950   0.17301   0.19788
 Alpha virt. eigenvalues --    0.20138   0.21361   0.23144   0.23179   0.23763
 Alpha virt. eigenvalues --    0.25179   0.25385   0.25435   0.29653   0.32897

 Mulliken atomic charges:
              1
     1  C   -0.370990
     2  P    0.147916
     3  C   -0.370986
     4  C   -0.254674
     5  C   -0.302273
     6  H    0.107334
     7  H    0.107333
     8  H    0.114488
     9  H    0.096573
    10  H    0.096573
    11  H    0.112191
    12  H    0.105359
    13  H    0.096804
    14  H    0.112185
    15  H    0.096806
    16  H    0.105360
 Sum of Mulliken atomic charges =   0.00000

 Dipole moment (field-independent basis, Debye):
    X=             -0.7313    Y=              0.0000    Z=              1.1473  Tot=              1.3605
 Quadrupole moment (field-independent basis, Debye-Ang):
   XX=            -41.9240   YY=            -40.6366   ZZ=            -44.8294
   XY=              0.0000   XZ=              2.5952   YZ=              0.0000

 Normal termination of Gaussian 09 at Mon Mar 14 21:20:00 2016.
