 Gaussian 09, Revision A.01,
 Gaussian 09:  EM64L-G09RevA.01  8-May-2009

 -------------
 # mp2/cc-pVTZ
 -------------

 -----------------------
 Et_P_Me2_g_single_point
 -----------------------
 Symbolic Z-matrix:
 Charge =  0 Multiplicity = 1

                         Standard orientation:
 ---------------------------------------------------------------------
 Center     Atomic      Atomic             Coordinates (Angstroms)
 Number     Number       Type             X           Y           Z
 ---------------------------------------------------------------------
      1          6           0        0.670243    1.633150    0.284367
      2         15           0        0.450396   -0.002120   -0.590975
      3          6           0        1.818309   -0.967121    0.235566
      4          6           0       -1.013724   -0.692483    0.357300
      5          6           0       -2.350609   -0.040816   -0.021826
      6          1           0       -1.050265   -1.765659    0.130440
      7          1           0       -0.833897   -0.601102    1.437773
      8          1           0       -3.182462   -0.515376    0.510747
      9          1           0       -2.367330    1.024986    0.231019
     10          1           0       -2.545754   -0.130864   -1.095935
     11          1           0        1.605622    2.097110   -0.044855
     12          1           0       -0.144568    2.312808    0.017159
     13          1           0        0.697045    1.523777    1.375822
     14          1           0        2.788032   -0.587576   -0.102006
     15          1           0        1.777724   -0.902836    1.330052
     16          1           0        1.754606   -2.019838   -0.058042
 ---------------------------------------------------------------------

 SCF Done:  E(RHF) =  -498.690761141     A.U. after   11 cycles
 E2 =    -0.8729756716D+00 EUMP2 =    -0.49956373681260D+03

 The electronic state is 1-A.
 Alpha  occ. eigenvalues --  -79.92840 -11.22566 -11.21962 -11.21937 -11.21913
 Alpha  occ. eigenvalues --   -7.46834  -5.36210  -5.36201  -5.36101  -1.03804
 Alpha  occ. eigenvalues --   -0.97853  -0.92951  -0.84714  -0.70813  -0.61345
 Alpha  occ. eigenvalues --   -0.58791  -0.57577  -0.56446  -0.54696  -0.54182
 Alpha  occ. eigenvalues --   -0.51203  -0.49535  -0.44598  -0.42922  -0.32707
 Alpha virt. eigenvalues --    0.13810   0.14665   0.15637   0.18045   0.19339
 Alpha virt. eigenvalues --    0.20393   0.20822   0.22491   0.22846   0.24645
 Alpha virt. eigenvalues --    0.24860   0.25524   0.26483   0.27390   0.33414

 Mulliken atomic charges:
              1
     1  C   -0.366986
     2  P    0.160211
     3  C   -0.364906
     4  C   -0.243812
     5  C   -0.291415
     6  H    0.100858
     7  H    0.094808
     8  H    0.103476
     9  H    0.091550
    10  H    0.100959
    11  H    0.110538
    12  H    0.107412
    13  H    0.092557
    14  H    0.106833
    15  H    0.091988
    16  H    0.105928
 Sum of Mulliken atomic charges =   0.00000

 Dipole moment (field-independent basis, Debye):
    X=             -0.0178    Y=             -0.0569    Z=              1.3062  Tot=              1.3076
 Quadrupole moment (field-independent basis, Debye-Ang):
   XX=            -40.7785   YY=            -40.7501   ZZ=            -45.1199
   XY=              0.3104   XZ=              0.2817   YZ=              0.0726

 Normal termination of Gaussian 09 at Mon Mar 14 21:24:52 2016.
