 Gaussian 09, Revision A.01,
 Gaussian 09:  EM64L-G09RevA.01  8-May-2009

 -------------
 # mp2/cc-pVTZ
 -------------

 -----------------------------
 ethylphosphine_g_single_point
 -----------------------------
 Symbolic Z-matrix:
 Charge =  0 Multiplicity = 1

                         Standard orientation:
 ---------------------------------------------------------------------
 Center     Atomic      Atomic             Coordinates (Angstroms)
 Number     Number       Type             X           Y           Z
 ---------------------------------------------------------------------
      1          6           0        0.521537    0.663760    0.045221
      2          6           0        1.685026   -0.334027   -0.014990
      3         15           0       -1.147379   -0.197693   -0.113960
      4          1           0       -1.966695    0.908754    0.254076
      5          1           0       -1.183694   -0.772841    1.190353
      6          1           0        0.588100    1.366038   -0.794147
      7          1           0        0.570021    1.255271    0.964773
      8          1           0        2.648150    0.187289    0.021281
      9          1           0        1.656428   -1.032680    0.828877
     10          1           0        1.659002   -0.924831   -0.937199
 ---------------------------------------------------------------------

 SCF Done:  E(RHF) =  -420.584202099     A.U. after   12 cycles
 E2 =    -0.5189548738D+00 EUMP2 =    -0.42110315697274D+03

 The electronic state is 1-A.
 Alpha  occ. eigenvalues --  -79.93569 -11.23630 -11.22474  -7.47773  -5.37137
 Alpha  occ. eigenvalues --   -5.37112  -5.37015  -1.03527  -0.87852  -0.77636
 Alpha  occ. eigenvalues --   -0.61731  -0.58757  -0.53305  -0.50745  -0.48615
 Alpha  occ. eigenvalues --   -0.45220  -0.35926
 Alpha virt. eigenvalues --    0.12289   0.15956   0.17335   0.17577   0.19281
 Alpha virt. eigenvalues --    0.19868   0.22976   0.23658   0.29685   0.33991
 Alpha virt. eigenvalues --    0.37513   0.38067   0.39531   0.40346   0.41989

 Mulliken atomic charges:
              1
     1  C   -0.224129
     2  C   -0.284232
     3  P    0.002536
     4  H    0.004785
     5  H    0.002057
     6  H    0.096717
     7  H    0.105954
     8  H    0.101480
     9  H    0.094866
    10  H    0.099964
 Sum of Mulliken atomic charges =   0.00000

 Dipole moment (field-independent basis, Debye):
    X=              0.8638    Y=              0.7254    Z=              0.5959  Tot=              1.2757
 Quadrupole moment (field-independent basis, Debye-Ang):
   XX=            -29.4124   YY=            -29.0073   ZZ=            -29.3992
   XY=             -0.7641   XZ=             -1.1428   YZ=             -1.1493

 Normal termination of Gaussian 09 at Mon Mar 14 21:15:19 2016.
