 Gaussian 09, Revision A.01,
 Gaussian 09:  EM64L-G09RevA.01  8-May-2009

 -------------
 # mp2/cc-pVTZ
 -------------

 -----------------------------
 ethylphosphine_a_single_point
 -----------------------------
 Symbolic Z-matrix:
 Charge =  0 Multiplicity = 1

                         Standard orientation:
 ---------------------------------------------------------------------
 Center     Atomic      Atomic             Coordinates (Angstroms)
 Number     Number       Type             X           Y           Z
 ---------------------------------------------------------------------
      1          6           0       -0.526873    0.656501    0.000010
      2          6           0       -1.678463   -0.353765    0.000001
      3         15           0        1.219019   -0.040153    0.000004
      4          1           0        1.030986   -0.999598    1.038183
      5          1           0        1.031006   -0.999662   -1.038122
      6          1           0       -0.592980    1.314856    0.875184
      7          1           0       -0.592782    1.314633   -0.875360
      8          1           0       -2.650062    0.155540   -0.000119
      9          1           0       -1.639637   -1.000015   -0.883626
     10          1           0       -1.639795   -0.999877    0.883735
 ---------------------------------------------------------------------

 SCF Done:  E(RHF) =  -420.584654591     A.U. after   12 cycles
 E2 =    -0.5193802333D+00 EUMP2 =    -0.42110403482407D+03

 The electronic state is 1-A.
 Alpha  occ. eigenvalues --  -79.93596 -11.23703 -11.22385  -7.47794  -5.37155
 Alpha  occ. eigenvalues --   -5.37137  -5.37037  -1.03489  -0.87899  -0.78026
 Alpha  occ. eigenvalues --   -0.61872  -0.57404  -0.53190  -0.51611  -0.48380
 Alpha  occ. eigenvalues --   -0.45567  -0.35950
 Alpha virt. eigenvalues --    0.12545   0.16557   0.16832   0.17241   0.19327
 Alpha virt. eigenvalues --    0.19673   0.23419   0.23799   0.31192   0.32355
 Alpha virt. eigenvalues --    0.36112   0.38259   0.39632   0.39753   0.40914

 Mulliken atomic charges:
              1
     1  C   -0.227531
     2  C   -0.268431
     3  P    0.005471
     4  H    0.000090
     5  H    0.000097
     6  H    0.100028
     7  H    0.100009
     8  H    0.101586
     9  H    0.094341
    10  H    0.094341
 Sum of Mulliken atomic charges =   0.00000

 Dipole moment (field-independent basis, Debye):
    X=             -1.2741    Y=             -0.1329    Z=             -0.0001  Tot=              1.2810
 Quadrupole moment (field-independent basis, Debye-Ang):
   XX=            -31.9096   YY=            -28.8833   ZZ=            -27.8937
   XY=             -1.6291   XZ=             -0.0002   YZ=              0.0002

 Normal termination of Gaussian 09 at Mon Mar 14 21:14:09 2016.
