 Gaussian 09, Revision A.01,
 Gaussian 09:  EM64L-G09RevA.01  8-May-2009

 -------------
 # mp2/cc-pVTZ
 -------------

 ----------------------------------
 P_Me_phosphorinane_eq_single_point
 ----------------------------------
 Symbolic Z-matrix:
 Charge =  0 Multiplicity = 1

                         Standard orientation:
 ---------------------------------------------------------------------
 Center     Atomic      Atomic             Coordinates (Angstroms)
 Number     Number       Type             X           Y           Z
 ---------------------------------------------------------------------
      1          6           0        2.573494   -0.000003    0.441587
      2         15           0        1.032438   -0.000007   -0.610410
      3          6           0        0.069295    1.398099    0.185263
      4          6           0       -1.430007    1.289880   -0.151032
      5          6           0       -2.076807    0.000011    0.384634
      6          6           0       -1.430026   -1.289874   -0.151017
      7          6           0        0.069279   -1.398100    0.185258
      8          1           0        0.472925   -2.350545   -0.177915
      9          1           0        0.209352   -1.378964    1.276056
     10          1           0       -1.957683   -2.158696    0.263515
     11          1           0       -1.564551   -1.338499   -1.240639
     12          1           0       -2.016814    0.000011    1.483063
     13          1           0       -3.144985    0.000004    0.133637
     14          1           0       -1.957650    2.158710    0.263502
     15          1           0       -1.564540    1.338526   -1.240652
     16          1           0        0.209337    1.378943    1.276066
     17          1           0        0.472981    2.350534   -0.177889
     18          1           0        2.350729    0.000037    1.515458
     19          1           0        3.176464   -0.883309    0.206924
     20          1           0        3.176499    0.883264    0.206866
 ---------------------------------------------------------------------

 SCF Done:  E(RHF) =  -575.618637283     A.U. after   12 cycles
 E2 =    -0.1199213315D+01 EUMP2 =    -0.57681785059840D+03

 The electronic state is 1-A.
 Alpha  occ. eigenvalues --  -79.92423 -11.22370 -11.22366 -11.22133 -11.22133
 Alpha  occ. eigenvalues --  -11.22028 -11.21923  -7.46457  -5.35832  -5.35824
 Alpha  occ. eigenvalues --   -5.35720  -1.09204  -1.00264  -0.98489  -0.91988
 Alpha  occ. eigenvalues --   -0.82713  -0.78174  -0.71077  -0.62996  -0.59787
 Alpha  occ. eigenvalues --   -0.59652  -0.57844  -0.56339  -0.54157  -0.53501
 Alpha  occ. eigenvalues --   -0.49626  -0.48747  -0.48157  -0.46286  -0.42405
 Alpha  occ. eigenvalues --   -0.40597  -0.32502
 Alpha virt. eigenvalues --    0.13901   0.14409   0.15506   0.16314   0.18318
 Alpha virt. eigenvalues --    0.18824   0.20397   0.21476   0.21984   0.22420
 Alpha virt. eigenvalues --    0.22837   0.24011   0.24243   0.26021   0.26407

 Mulliken atomic charges:
              1
     1  C   -0.371519
     2  P    0.142159
     3  C   -0.258972
     4  C   -0.193771
     5  C   -0.193247
     6  C   -0.193769
     7  C   -0.258970
     8  H    0.111710
     9  H    0.093266
    10  H    0.107451
    11  H    0.098604
    12  H    0.087571
    13  H    0.109738
    14  H    0.107450
    15  H    0.098607
    16  H    0.093266
    17  H    0.111712
    18  H    0.096349
    19  H    0.106182
    20  H    0.106183
 Sum of Mulliken atomic charges =   0.00000

 Dipole moment (field-independent basis, Debye):
    X=             -0.3412    Y=              0.0000    Z=              1.3005  Tot=              1.3446
 Quadrupole moment (field-independent basis, Debye-Ang):
   XX=            -52.9568   YY=            -52.3453   ZZ=            -56.7440
   XY=              0.0001   XZ=              1.6502   YZ=              0.0000

 Normal termination of Gaussian 09 at Mon Mar 14 21:55:39 2016.
