 Gaussian 09, Revision A.01,
 Gaussian 09:  EM64L-G09RevA.01  8-May-2009

 -------------
 # mp2/cc-pVTZ
 -------------

 ----------------------------------
 P_Me_phosphorinane_ax_single_point
 ----------------------------------
 Symbolic Z-matrix:
 Charge =  0 Multiplicity = 1

                         Standard orientation:
 ---------------------------------------------------------------------
 Center     Atomic      Atomic             Coordinates (Angstroms)
 Number     Number       Type             X           Y           Z
 ---------------------------------------------------------------------
      1          6           0        1.863309   -0.000019    1.151779
      2         15           0        1.244695   -0.000029   -0.613798
      3          6           0        0.020934   -1.425626   -0.576408
      4          6           0       -1.178704   -1.284460    0.375221
      5          6           0       -1.990551    0.000044    0.142723
      6          6           0       -1.178627    1.284503    0.375202
      7          6           0        0.021027    1.425606   -0.576418
      8          1           0        0.590027    2.337168   -0.354659
      9          1           0       -0.338407    1.539656   -1.608234
     10          1           0       -1.834824    2.157224    0.253995
     11          1           0       -0.834005    1.309077    1.417785
     12          1           0       -2.380929    0.000047   -0.886217
     13          1           0       -2.866268    0.000089    0.803935
     14          1           0       -1.834952   -2.157143    0.254014
     15          1           0       -0.834082   -1.309066    1.417804
     16          1           0       -0.338530   -1.539646   -1.608218
     17          1           0        0.589902   -2.337213   -0.354668
     18          1           0        1.078935    0.000021    1.914686
     19          1           0        2.494160   -0.882348    1.302101
     20          1           0        2.494217    0.882276    1.302053
 ---------------------------------------------------------------------

 SCF Done:  E(RHF) =  -575.617244767     A.U. after   12 cycles
 E2 =    -0.1199690945D+01 EUMP2 =    -0.57681693571219D+03

 The electronic state is 1-A.
 Alpha  occ. eigenvalues --  -79.92514 -11.22368 -11.22363 -11.22234 -11.22234
 Alpha  occ. eigenvalues --  -11.22072 -11.21772  -7.46507  -5.35878  -5.35873
 Alpha  occ. eigenvalues --   -5.35767  -1.09169  -1.00382  -0.98133  -0.92241
 Alpha  occ. eigenvalues --   -0.83039  -0.78991  -0.70220  -0.62928  -0.60437
 Alpha  occ. eigenvalues --   -0.60225  -0.56334  -0.55490  -0.55462  -0.53280
 Alpha  occ. eigenvalues --   -0.50489  -0.48123  -0.47457  -0.46775  -0.43398
 Alpha  occ. eigenvalues --   -0.40623  -0.32137
 Alpha virt. eigenvalues --    0.13254   0.14798   0.16092   0.16644   0.17625
 Alpha virt. eigenvalues --    0.18635   0.20321   0.20405   0.21588   0.23363
 Alpha virt. eigenvalues --    0.23972   0.25017   0.25274   0.25530   0.26727

 Mulliken atomic charges:
              1
     1  C   -0.373545
     2  P    0.127546
     3  C   -0.277953
     4  C   -0.200067
     5  C   -0.185582
     6  C   -0.200069
     7  C   -0.277945
     8  H    0.114788
     9  H    0.108535
    10  H    0.116361
    11  H    0.097578
    12  H    0.086304
    13  H    0.109379
    14  H    0.116361
    15  H    0.097580
    16  H    0.108533
    17  H    0.114790
    18  H    0.099664
    19  H    0.108871
    20  H    0.108870
 Sum of Mulliken atomic charges =   0.00000

 Dipole moment (field-independent basis, Debye):
    X=             -1.1375    Y=              0.0001    Z=              1.0046  Tot=              1.5176
 Quadrupole moment (field-independent basis, Debye-Ang):
   XX=            -56.2843   YY=            -52.3023   ZZ=            -55.1544
   XY=              0.0001   XZ=              3.3986   YZ=             -0.0001

 Normal termination of Gaussian 09 at Mon Mar 14 21:40:31 2016.
