 Gaussian 09, Revision A.01,
 Gaussian 09:  EM64L-G09RevA.01  8-May-2009

 -------------
 # mp2/cc-pVTZ
 -------------

 ----------------------------------
 trimethylphosphate_C3_single_point
 ----------------------------------
 Symbolic Z-matrix:
 Charge =  0 Multiplicity = 1

                         Standard orientation:
 ---------------------------------------------------------------------
 Center     Atomic      Atomic             Coordinates (Angstroms)
 Number     Number       Type             X           Y           Z
 ---------------------------------------------------------------------
      1          6           0        2.516335   -0.770582   -0.054229
      2          8           0        1.177405   -0.836301   -0.588579
      3         15           0        0.000700   -0.000742    0.115806
      4          8           0       -1.311321   -0.600034   -0.590435
      5          6           0       -1.928917   -1.789322   -0.054653
      6          8           0       -0.000950   -0.001400    1.601384
      7          8           0        0.137197    1.436185   -0.588468
      8          6           0       -0.590083    2.562291   -0.054078
      9          1           0        3.090720   -1.527661   -0.589013
     10          1           0        2.947935    0.217754   -0.238968
     11          1           0        2.511725   -0.984273    1.017538
     12          1           0       -0.226533    3.437763   -0.593017
     13          1           0       -1.662383    2.438509   -0.233281
     14          1           0       -0.397969    2.668668    1.016485
     15          1           0       -2.869394   -1.908047   -0.593628
     16          1           0       -1.290406   -2.659940   -0.232335
     17          1           0       -2.116857   -1.673567    1.015682
 ---------------------------------------------------------------------

 SCF Done:  E(RHF) =  -759.311518316     A.U. after   12 cycles
 E2 =    -0.1616474999D+01 EUMP2 =    -0.76092799331483D+03

 The electronic state is 1-A.
 Alpha  occ. eigenvalues --  -80.09626 -20.58752 -20.58749 -20.58743 -20.50397
 Alpha  occ. eigenvalues --  -11.29214 -11.29212 -11.29208  -7.61306  -5.51130
 Alpha  occ. eigenvalues --   -5.51129  -5.51017  -1.44022  -1.37416  -1.37405
 Alpha  occ. eigenvalues --   -1.28410  -0.98380  -0.94299  -0.94296  -0.77860
 Alpha  occ. eigenvalues --   -0.70803  -0.70794  -0.66676  -0.65129  -0.65123
 Alpha  occ. eigenvalues --   -0.61891  -0.61762  -0.61755  -0.58904  -0.52527
 Alpha  occ. eigenvalues --   -0.52527  -0.50732  -0.49217  -0.49213  -0.48169
 Alpha  occ. eigenvalues --   -0.45463  -0.45458
 Alpha virt. eigenvalues --    0.13898   0.15807   0.15820   0.20466   0.20895
 Alpha virt. eigenvalues --    0.20900   0.21735   0.22519   0.22529   0.22796
 Alpha virt. eigenvalues --    0.26965   0.26976   0.32439   0.32656   0.32691

 Mulliken atomic charges:
              1
     1  C   -0.057637
     2  O   -0.412645
     3  P    1.130083
     4  O   -0.412892
     5  C   -0.057478
     6  O   -0.628613
     7  O   -0.412809
     8  C   -0.057512
     9  H    0.111654
    10  H    0.088310
    11  H    0.103329
    12  H    0.111649
    13  H    0.088088
    14  H    0.103341
    15  H    0.111573
    16  H    0.088160
    17  H    0.103397
 Sum of Mulliken atomic charges =   0.00000

 Dipole moment (field-independent basis, Debye):
    X=             -0.0023    Y=              0.0020    Z=             -0.9658  Tot=              0.9658
 Quadrupole moment (field-independent basis, Debye-Ang):
   XX=            -44.7090   YY=            -44.7599   ZZ=            -63.6232
   XY=             -0.0005   XZ=              0.0063   YZ=              0.0049

 Normal termination of Gaussian 09 at Mon Mar 14 22:18:09 2016.
