 Gaussian 09, Revision A.01,
 Gaussian 09:  EM64L-G09RevA.01  8-May-2009

 -------------
 # mp2/cc-pVTZ
 -------------

 ----------------------------------
 trimethylphosphate_C1_single_point
 ----------------------------------
 Symbolic Z-matrix:
 Charge =  0 Multiplicity = 1

                         Standard orientation:
 ---------------------------------------------------------------------
 Center     Atomic      Atomic             Coordinates (Angstroms)
 Number     Number       Type             X           Y           Z
 ---------------------------------------------------------------------
      1          6           0        1.351470    2.047126   -0.475151
      2          8           0        0.991734    1.160209    0.604404
      3         15           0       -0.055686   -0.035566    0.409170
      4          8           0        0.493870   -0.931696   -0.825793
      5          6           0        1.354168   -2.059539   -0.554554
      6          8           0       -0.320468   -0.794547    1.651020
      7          8           0       -1.287613    0.723700   -0.290914
      8          6           0       -2.506123    0.003602   -0.571766
      9          1           0        2.131884    2.697943   -0.079685
     10          1           0        1.734979    1.479345   -1.327815
     11          1           0        0.485703    2.640316   -0.779479
     12          1           0       -3.214245    0.743611   -0.945709
     13          1           0       -2.326360   -0.758824   -1.335293
     14          1           0       -2.893421   -0.457841    0.340325
     15          1           0        1.412062   -2.626281   -1.484747
     16          1           0        2.353617   -1.716687   -0.268919
     17          1           0        0.933804   -2.676562    0.242855
 ---------------------------------------------------------------------

 SCF Done:  E(RHF) =  -759.309504878     A.U. after   12 cycles
 E2 =    -0.1617461819D+01 EUMP2 =    -0.76092696669653D+03

 The electronic state is 1-A.
 Alpha  occ. eigenvalues --  -80.09701 -20.59057 -20.58944 -20.58912 -20.50167
 Alpha  occ. eigenvalues --  -11.29561 -11.29548 -11.29337  -7.61367  -5.51208
 Alpha  occ. eigenvalues --   -5.51184  -5.51068  -1.44174  -1.37531  -1.37444
 Alpha  occ. eigenvalues --   -1.28405  -0.98001  -0.95187  -0.94587  -0.78174
 Alpha  occ. eigenvalues --   -0.71065  -0.70865  -0.66971  -0.65880  -0.64839
 Alpha  occ. eigenvalues --   -0.62976  -0.61797  -0.61483  -0.57893  -0.53649
 Alpha  occ. eigenvalues --   -0.52284  -0.51296  -0.49504  -0.49085  -0.47763
 Alpha  occ. eigenvalues --   -0.45849  -0.45335
 Alpha virt. eigenvalues --    0.13326   0.15450   0.15754   0.19892   0.20233
 Alpha virt. eigenvalues --    0.20890   0.21302   0.21983   0.22895   0.23195
 Alpha virt. eigenvalues --    0.26506   0.27668   0.31100   0.32791   0.33338

 Mulliken atomic charges:
              1
     1  C   -0.064039
     2  O   -0.405066
     3  P    1.144040
     4  O   -0.447364
     5  C   -0.060790
     6  O   -0.602565
     7  O   -0.423739
     8  C   -0.054965
     9  H    0.115282
    10  H    0.087070
    11  H    0.101112
    12  H    0.111511
    13  H    0.089740
    14  H    0.104948
    15  H    0.105054
    16  H    0.085149
    17  H    0.114624
 Sum of Mulliken atomic charges =   0.00000

 Dipole moment (field-independent basis, Debye):
    X=              0.4525    Y=              0.3947    Z=             -4.0174  Tot=              4.0621
 Quadrupole moment (field-independent basis, Debye-Ang):
   XX=            -45.0473   YY=            -48.6418   ZZ=            -62.3426
   XY=             -0.3261   XZ=              0.4484   YZ=              1.8663

 Normal termination of Gaussian 09 at Mon Mar 14 22:07:04 2016.
