 Gaussian 09, Revision D.01,
 Gaussian 09:  EM64L-G09RevD.01 24-Apr-2013

 -------------
 # mp2/cc-pVTZ
 -------------

 -------------------------
 1_Butene_cis_single_point
 -------------------------
 Symbolic Z-matrix:
 Charge =  0 Multiplicity = 1

                         Standard orientation:
 ---------------------------------------------------------------------
 Center     Atomic      Atomic             Coordinates (Angstroms)
 Number     Number       Type             X           Y           Z
 ---------------------------------------------------------------------
      1          6           0       -1.541183   -0.587620    0.000023
      2          6           0       -0.856031    0.560519   -0.000013
      3          6           0        0.643590    0.720526    0.000027
      4          6           0        1.458862   -0.574838   -0.000026
      5          1           0       -1.416414    1.496652   -0.000130
      6          1           0       -2.627270   -0.592498   -0.000061
      7          1           0       -1.051965   -1.557606    0.000055
      8          1           0        2.531024   -0.353617   -0.000009
      9          1           0        1.243627   -1.183001    0.885326
     10          1           0        1.243613   -1.182938   -0.885416
     11          1           0        0.923014    1.330810   -0.871778
     12          1           0        0.922945    1.330673    0.871949
 ---------------------------------------------------------------------

 SCF Done:  E(RHF) =  -156.162204147     A.U. after   12 cycles
 E2 =    -0.6849036659D+00 EUMP2 =    -0.15684710781243D+03

 The electronic state is 1-A.
 Alpha  occ. eigenvalues --  -11.23242 -11.22912 -11.21604 -11.21558  -1.07644
 Alpha  occ. eigenvalues --   -0.98134  -0.86848  -0.73581  -0.64301  -0.60897
 Alpha  occ. eigenvalues --   -0.58403  -0.54115  -0.49764  -0.49198  -0.47445
 Alpha  occ. eigenvalues --   -0.35657
 Alpha virt. eigenvalues --    0.14307   0.16540   0.16545   0.18057   0.20407
 Alpha virt. eigenvalues --    0.21505   0.22183   0.23822   0.24680   0.32863
 Alpha virt. eigenvalues --    0.34660   0.36984   0.39735   0.40356   0.45468

 Mulliken charges:
               1
     1  C   -0.357793
     2  C   -0.132242
     3  C   -0.108747
     4  C   -0.308407
     5  H    0.148657
     6  H    0.142463
     7  H    0.138186
     8  H    0.105100
     9  H    0.096737
    10  H    0.096740
    11  H    0.089652
    12  H    0.089652
 Sum of Mulliken charges =   0.00000

 Dipole moment (field-independent basis, Debye):
    X=              0.3656    Y=              0.2764    Z=             -0.0001  Tot=              0.4583
 Quadrupole moment (field-independent basis, Debye-Ang):
   XX=            -26.4831   YY=            -25.7453   ZZ=            -28.7195
   XY=              0.1528   XZ=              0.0003   YZ=             -0.0002

 Normal termination of Gaussian 09 at Sat Feb 13 23:54:04 2016.
