 Gaussian 09, Revision D.01,
 Gaussian 09:  EM64L-G09RevD.01 24-Apr-2013

 -------------
 # mp2/cc-pVTZ
 -------------

 --------------------------
 1_Butene_skew_single_point
 --------------------------
 Symbolic Z-matrix:
 Charge =  0 Multiplicity = 1

                         Standard orientation:
 ---------------------------------------------------------------------
 Center     Atomic      Atomic             Coordinates (Angstroms)
 Number     Number       Type             X           Y           Z
 ---------------------------------------------------------------------
      1          6           0       -1.866646    0.020711   -0.277813
      2          6           0       -0.722842   -0.300285    0.334748
      3          6           0        0.540112    0.517647    0.310140
      4          6           0        1.733576   -0.242956   -0.294662
      5          1           0       -0.672703   -1.233738    0.898965
      6          1           0       -2.742743   -0.619161   -0.223119
      7          1           0       -1.965872    0.938411   -0.854115
      8          1           0        2.643289    0.366338   -0.263437
      9          1           0        1.933045   -1.169271    0.256601
     10          1           0        1.538708   -0.511988   -1.338209
     11          1           0        0.365559    1.445005   -0.249167
     12          1           0        0.795521    0.813702    1.338006
 ---------------------------------------------------------------------

 SCF Done:  E(RHF) =  -156.163171934     A.U. after   12 cycles
 E2 =    -0.6841603785D+00 EUMP2 =    -0.15684733231209D+03

 The electronic state is 1-A.
 Alpha  occ. eigenvalues --  -11.23192 -11.22783 -11.21813 -11.21748  -1.07597
 Alpha  occ. eigenvalues --   -0.98587  -0.85453  -0.75294  -0.63934  -0.60383
 Alpha  occ. eigenvalues --   -0.58292  -0.53363  -0.51568  -0.48566  -0.47410
 Alpha  occ. eigenvalues --   -0.35737
 Alpha virt. eigenvalues --    0.14144   0.16272   0.17174   0.17886   0.19158
 Alpha virt. eigenvalues --    0.21838   0.23075   0.23421   0.25043   0.30599
 Alpha virt. eigenvalues --    0.33774   0.37959   0.39741   0.40970   0.42115

 Mulliken charges:
               1
     1  C   -0.341067
     2  C   -0.124041
     3  C   -0.132627
     4  C   -0.277628
     5  H    0.145014
     6  H    0.137942
     7  H    0.131935
     8  H    0.096496
     9  H    0.086338
    10  H    0.093206
    11  H    0.091528
    12  H    0.092904
 Sum of Mulliken charges =   0.00000

 Dipole moment (field-independent basis, Debye):
    X=              0.3766    Y=              0.0471    Z=              0.1026  Tot=              0.3931
 Quadrupole moment (field-independent basis, Debye-Ang):
   XX=            -26.8685   YY=            -26.6308   ZZ=            -27.7293
   XY=              0.4981   XZ=              0.9540   YZ=             -1.3945

 Normal termination of Gaussian 09 at Sat Feb 13 23:54:54 2016.
