 Gaussian 09, Revision D.01,
 Gaussian 09:  EM64L-G09RevD.01 24-Apr-2013

 -------------
 # mp2/cc-pVTZ
 -------------

 ---------------------------------
 2_3_dimethy_butane_a_single_point
 ---------------------------------
 Symbolic Z-matrix:
 Charge =  0 Multiplicity = 1

                         Standard orientation:
 ---------------------------------------------------------------------
 Center     Atomic      Atomic             Coordinates (Angstroms)
 Number     Number       Type             X           Y           Z
 ---------------------------------------------------------------------
      1          6           0        1.518455    1.255453   -0.053882
      2          6           0        0.709299   -0.000082    0.317799
      3          6           0        1.518665   -1.255409   -0.054150
      4          6           0       -0.709305   -0.000080   -0.317804
      5          6           0       -1.518443    1.255467    0.053883
      6          6           0       -1.518677   -1.255401    0.054150
      7          1           0        2.525394    1.205959    0.375420
      8          1           0        1.628304    1.340588   -1.143045
      9          1           0        1.053638    2.176332    0.309009
     10          1           0        0.572930   -0.000202    1.411438
     11          1           0       -0.572918   -0.000181   -1.411440
     12          1           0       -2.525667   -1.205722   -0.375006
     13          1           0       -1.054108   -2.176422   -0.308692
     14          1           0       -1.628372   -1.340389    1.143342
     15          1           0        1.054092   -2.176426    0.308696
     16          1           0        1.628376   -1.340392   -1.143341
     17          1           0        2.525657   -1.205733    0.375006
     18          1           0       -2.525386    1.205962   -0.375406
     19          1           0       -1.628285    1.340604    1.143048
     20          1           0       -1.053616    2.176339   -0.309010
 ---------------------------------------------------------------------

 SCF Done:  E(RHF) =  -235.444871497     A.U. after   11 cycles
 E2 =    -0.1075184924D+01 EUMP2 =    -0.23652005642175D+03

 The electronic state is 1-A.
 Alpha  occ. eigenvalues --  -11.22480 -11.22424 -11.20865 -11.20865 -11.20863
 Alpha  occ. eigenvalues --  -11.20863  -1.09665  -1.00807  -0.93570  -0.90795
 Alpha  occ. eigenvalues --   -0.82889  -0.74713  -0.62157  -0.61771  -0.58821
 Alpha  occ. eigenvalues --   -0.57548  -0.54268  -0.53667  -0.52509  -0.50759
 Alpha  occ. eigenvalues --   -0.49687  -0.47904  -0.45116  -0.44255  -0.43588
 Alpha virt. eigenvalues --    0.14084   0.16251   0.16596   0.16903   0.19769
 Alpha virt. eigenvalues --    0.20970   0.21314   0.22972   0.23687   0.24321
 Alpha virt. eigenvalues --    0.24437   0.26068   0.26244   0.28084   0.30483

 Mulliken charges:
               1
     1  C   -0.313081
     2  C   -0.052444
     3  C   -0.313070
     4  C   -0.052444
     5  C   -0.313079
     6  C   -0.313070
     7  H    0.100967
     8  H    0.088655
     9  H    0.101782
    10  H    0.095786
    11  H    0.095787
    12  H    0.100967
    13  H    0.101785
    14  H    0.088653
    15  H    0.101784
    16  H    0.088652
    17  H    0.100966
    18  H    0.100967
    19  H    0.088654
    20  H    0.101783
 Sum of Mulliken charges =   0.00000

 Dipole moment (field-independent basis, Debye):
    X=              0.0000    Y=              0.0000    Z=              0.0000  Tot=              0.0000
 Quadrupole moment (field-independent basis, Debye-Ang):
   XX=            -42.8635   YY=            -43.0444   ZZ=            -41.8497
   XY=              0.0001   XZ=              0.3561   YZ=              0.0000

 1\1\GINC-MEGATRON\SP\RMP2-FC\CC-pVTZ\C6H14\STYLIANAKIS\14-Feb-2016\0\\
 # mp2/cc-pVTZ\\2_3_dimethy_butane_a_single_point\\0,1\C\C,1,1.539236\C
 ,2,1.539242,1,109.297\C,2,1.554487,3,112.399,1,125.516,0\C,4,1.539238,
 2,112.395,3,-179.984,0\C,4,1.539241,2,112.399,1,-179.984,0\H,1,1.09575
 4,2,110.587,4,-177.715,0\H,1,1.097994,2,110.816,4,-58.645,0\H,1,1.0935
 1,2,112.54,4,62.2,0\H,2,1.102108,4,107.027,6,-61.89,0\H,4,1.102108,2,1
 07.026,1,61.918,0\H,6,1.095752,4,110.586,2,177.702,0\H,6,1.093507,4,11
 2.54,2,-62.212,0\H,6,1.097996,4,110.816,2,58.632,0\H,3,1.093507,2,112.

 Normal termination of Gaussian 09 at Sun Feb 14 00:02:19 2016.
