 Gaussian 09, Revision D.01,
 Gaussian 09:  EM64L-G09RevD.01 24-Apr-2013

 -------------
 # mp2/cc-pVTZ
 -------------

 -----------------------------------
 2_3_dimethyl_butane_g_single_pointt
 -----------------------------------
 Symbolic Z-matrix:
 Charge =  0 Multiplicity = 1

                         Standard orientation:
 ---------------------------------------------------------------------
 Center     Atomic      Atomic             Coordinates (Angstroms)
 Number     Number       Type             X           Y           Z
 ---------------------------------------------------------------------
      1          6           0        1.810989   -0.748817   -0.546984
      2          6           0        0.711954    0.313446   -0.376121
      3          6           0        1.006714    1.198052    0.847734
      4          6           0       -0.711940   -0.313449   -0.376116
      5          6           0       -1.810985    0.748807   -0.546999
      6          6           0       -1.006725   -1.198035    0.847740
      7          1           0        2.791939   -0.276963   -0.674320
      8          1           0        1.877451   -1.407011    0.327027
      9          1           0        1.625940   -1.376959   -1.426246
     10          1           0        0.753241    0.962733   -1.263934
     11          1           0       -0.753224   -0.962756   -1.263916
     12          1           0       -1.979360   -1.690737    0.736787
     13          1           0       -0.255853   -1.983472    0.982012
     14          1           0       -1.044660   -0.608282    1.770951
     15          1           0        0.255794    1.983445    0.982001
     16          1           0        1.044692    0.608301    1.770946
     17          1           0        1.979321    1.690802    0.736766
     18          1           0       -2.791910    0.276924   -0.674433
     19          1           0       -1.877523    1.406948    0.327043
     20          1           0       -1.625885    1.377001   -1.426210
 ---------------------------------------------------------------------

 SCF Done:  E(RHF) =  -235.444983839     A.U. after   11 cycles
 E2 =    -0.1074842269D+01 EUMP2 =    -0.23651982610774D+03

 The electronic state is 1-A.
 Alpha  occ. eigenvalues --  -11.22400 -11.22344 -11.20887 -11.20886 -11.20852
 Alpha  occ. eigenvalues --  -11.20852  -1.09599  -1.00683  -0.92821  -0.91902
 Alpha  occ. eigenvalues --   -0.83333  -0.73253  -0.63639  -0.60555  -0.60180
 Alpha  occ. eigenvalues --   -0.55918  -0.54898  -0.53683  -0.52066  -0.52041
 Alpha  occ. eigenvalues --   -0.48665  -0.48549  -0.44540  -0.44473  -0.43465
 Alpha virt. eigenvalues --    0.13497   0.16597   0.16788   0.17285   0.19926
 Alpha virt. eigenvalues --    0.20349   0.21185   0.22157   0.23438   0.24029
 Alpha virt. eigenvalues --    0.25955   0.26263   0.27726   0.29218   0.30267

 Mulliken charges:
               1
     1  C   -0.308512
     2  C   -0.062351
     3  C   -0.316299
     4  C   -0.062350
     5  C   -0.308513
     6  C   -0.316299
     7  H    0.101805
     8  H    0.089164
     9  H    0.096617
    10  H    0.100169
    11  H    0.100167
    12  H    0.106119
    13  H    0.102199
    14  H    0.091088
    15  H    0.102198
    16  H    0.091089
    17  H    0.106121
    18  H    0.101806
    19  H    0.089164
    20  H    0.096618
 Sum of Mulliken charges =   0.00000

 Dipole moment (field-independent basis, Debye):
    X=              0.0000    Y=              0.0000    Z=             -0.1309  Tot=              0.1309
 Quadrupole moment (field-independent basis, Debye-Ang):
   XX=            -42.7513   YY=            -42.5962   ZZ=            -42.2896
   XY=              0.3826   XZ=              0.0000   YZ=              0.0000

 1\1\GINC-MEGATRON\SP\RMP2-FC\CC-pVTZ\C6H14\STYLIANAKIS\14-Feb-2016\0\\
 # mp2/cc-pVTZ\\2_3_dimethyl_butane_g_single_pointt\\0,1\C\C,1,1.53801\
 C,2,1.538581,1,110.4\C,2,1.555787,3,114.017,1,127.196,0\C,4,1.538014,2
 ,112.068,3,67.442,0\C,4,1.538576,2,114.018,1,67.442,0\H,1,1.095958,2,1
 10.802,4,172.665,0\H,1,1.096144,2,111.683,4,-67.808,0\H,1,1.096315,2,1
 11.359,4,52.77,0\H,2,1.100677,4,105.785,6,-176.395,0\H,4,1.100678,2,10
 5.785,1,-50.066,0\H,6,1.09594,4,110.364,2,-174.082,0\H,6,1.094874,4,11
 2.247,2,-54.353,0\H,6,1.09616,4,111.546,2,66.807,0\H,3,1.094875,2,112.

 Normal termination of Gaussian 09 at Sun Feb 14 00:09:56 2016.
