 Gaussian 09, Revision D.01,
 Gaussian 09:  EM64L-G09RevD.01 24-Apr-2013

 -------------
 # mp2/cc-pVTZ
 -------------

 ---------------------
 Butane_a_single_point
 ---------------------
 Symbolic Z-matrix:
 Charge =  0 Multiplicity = 1

                         Standard orientation:
 ---------------------------------------------------------------------
 Center     Atomic      Atomic             Coordinates (Angstroms)
 Number     Number       Type             X           Y           Z
 ---------------------------------------------------------------------
      1          6           0        1.963286    0.121058    0.000017
      2          6           0        0.568785   -0.514803    0.000004
      3          6           0       -0.568781    0.514839   -0.000011
      4          6           0       -1.963273   -0.121076    0.000001
      5          1           0        0.464156   -1.167297    0.878060
      6          1           0        0.464201   -1.167300   -0.878053
      7          1           0       -0.464234    1.167322    0.878058
      8          1           0       -0.464236    1.167292   -0.878100
      9          1           0        2.750811   -0.640218   -0.000097
     10          1           0        2.111265    0.752054   -0.884471
     11          1           0        2.111275    0.752027    0.884504
     12          1           0       -2.750823    0.640172   -0.000011
     13          1           0       -2.111274   -0.752104   -0.884454
     14          1           0       -2.111243   -0.752056    0.884501
 ---------------------------------------------------------------------

 SCF Done:  E(RHF) =  -157.354893575     A.U. after   10 cycles
 E2 =    -0.7184750665D+00 EUMP2 =    -0.15807336864148D+03

 The electronic state is 1-A.
 Alpha  occ. eigenvalues --  -11.21731 -11.21671 -11.21097 -11.21096  -1.06611
 Alpha  occ. eigenvalues --   -0.97781  -0.85949  -0.78580  -0.63477  -0.58196
 Alpha  occ. eigenvalues --   -0.57258  -0.56529  -0.51340  -0.49384  -0.46805
 Alpha  occ. eigenvalues --   -0.46043  -0.45592
 Alpha virt. eigenvalues --    0.14204   0.15895   0.17873   0.18074   0.21278
 Alpha virt. eigenvalues --    0.22395   0.22978   0.24526   0.24957   0.26294
 Alpha virt. eigenvalues --    0.31175   0.31752   0.35970   0.38183   0.40283

 Mulliken charges:
               1
     1  C   -0.289346
     2  C   -0.154093
     3  C   -0.154092
     4  C   -0.289352
     5  H    0.085313
     6  H    0.085314
     7  H    0.085315
     8  H    0.085317
     9  H    0.099415
    10  H    0.086693
    11  H    0.086705
    12  H    0.099416
    13  H    0.086700
    14  H    0.086695
 Sum of Mulliken charges =   0.00000

 Dipole moment (field-independent basis, Debye):
    X=              0.0000    Y=              0.0000    Z=              0.0000  Tot=              0.0000
 Quadrupole moment (field-independent basis, Debye-Ang):
   XX=            -29.5917   YY=            -28.8602   ZZ=            -28.1661
   XY=             -0.3472   XZ=             -0.0001   YZ=              0.0002

 1\1\GINC-MEGATRON\SP\RMP2-FC\CC-pVTZ\C4H10\STYLIANAKIS\14-Feb-2016\0\\
 # mp2/cc-pVTZ\\Butane_a_single_point\\0,1\C\C,1,1.532629\C,2,1.534347,
 1,113.339\C,3,1.532643,2,113.337,1,-179.999,0\H,2,1.098944,3,109.139,4
 ,-57.751,0\H,2,1.098942,3,109.14,4,57.754,0\H,3,1.09894,2,109.141,1,-5
 7.755,0\H,3,1.098938,2,109.141,1,57.757,0\H,1,1.095325,2,111.459,3,-17
 9.993,0\H,1,1.096527,2,111.194,3,-59.899,0\H,1,1.096513,2,111.195,3,59
 .901,0\H,4,1.095324,3,111.459,2,-180.,0\H,4,1.096522,3,111.197,2,-59.8
 99,0\H,4,1.096527,3,111.195,2,59.9,0\\Version=EM64L-G09RevD.01\State=1

 Normal termination of Gaussian 09 at Sun Feb 14 00:11:03 2016.
