 Gaussian 09, Revision D.01,
 Gaussian 09:  EM64L-G09RevD.01 24-Apr-2013

 -------------
 # mp2/cc-pVTZ
 -------------

 ---------------------
 Butane_g_single_point
 ---------------------
 Symbolic Z-matrix:
 Charge =  0 Multiplicity = 1

                         Standard orientation:
 ---------------------------------------------------------------------
 Center     Atomic      Atomic             Coordinates (Angstroms)
 Number     Number       Type             X           Y           Z
 ---------------------------------------------------------------------
      1          6           0        1.590957   -0.554213    0.124332
      2          6           0        0.703479    0.619176   -0.311336
      3          6           0       -0.703481    0.619177    0.311328
      4          6           0       -1.590954   -0.554221   -0.124323
      5          1           0        0.611023    0.620192   -1.406801
      6          1           0        1.204236    1.560178   -0.047690
      7          1           0       -0.611045    0.620228    1.406797
      8          1           0       -1.204238    1.560184    0.047682
      9          1           0        2.592511   -0.474097   -0.312403
     10          1           0        1.705362   -0.577017    1.215142
     11          1           0        1.175380   -1.519024   -0.185493
     12          1           0       -2.592506   -0.474103    0.312410
     13          1           0       -1.705374   -0.577030   -1.215134
     14          1           0       -1.175355   -1.519026    0.185485
 ---------------------------------------------------------------------

 SCF Done:  E(RHF) =  -157.353206080     A.U. after   10 cycles
 E2 =    -0.7191599475D+00 EUMP2 =    -0.15807236602742D+03

 The electronic state is 1-A.
 Alpha  occ. eigenvalues --  -11.21772 -11.21714 -11.21055 -11.21055  -1.06545
 Alpha  occ. eigenvalues --   -0.97345  -0.87113  -0.77484  -0.61994  -0.61607
 Alpha  occ. eigenvalues --   -0.57166  -0.53214  -0.52923  -0.50235  -0.46160
 Alpha  occ. eigenvalues --   -0.45744  -0.45598
 Alpha virt. eigenvalues --    0.13957   0.17171   0.17211   0.17891   0.21479
 Alpha virt. eigenvalues --    0.22207   0.23219   0.24198   0.24324   0.26206
 Alpha virt. eigenvalues --    0.32708   0.33923   0.36618   0.38511   0.39249

 Mulliken charges:
               1
     1  C   -0.294357
     2  C   -0.165682
     3  C   -0.165681
     4  C   -0.294356
     5  H    0.085215
     6  H    0.095785
     7  H    0.085214
     8  H    0.095783
     9  H    0.102769
    10  H    0.086736
    11  H    0.089534
    12  H    0.102771
    13  H    0.086734
    14  H    0.089535
 Sum of Mulliken charges =   0.00000

 Dipole moment (field-independent basis, Debye):
    X=              0.0000    Y=              0.0898    Z=              0.0000  Tot=              0.0898
 Quadrupole moment (field-independent basis, Debye-Ang):
   XX=            -29.0592   YY=            -28.9090   ZZ=            -28.4885
   XY=              0.0000   XZ=             -0.0423   YZ=              0.0001

 1\1\GINC-MEGATRON\SP\RMP2-FC\CC-pVTZ\C4H10\STYLIANAKIS\14-Feb-2016\0\\
 # mp2/cc-pVTZ\\Butane_g_single_point\\0,1\C\C,1,1.534362\C,2,1.538586,
 1,114.457\C,3,1.53436,2,114.457,1,-65.693,0\H,2,1.09936,3,109.048,4,57
 .21,0\H,2,1.098068,3,108.654,4,172.401,0\H,3,1.099363,2,109.049,1,57.2
 11,0\H,3,1.098071,2,108.654,1,172.4,0\H,1,1.095567,2,111.079,3,-177.28
 3,0\H,1,1.09703,2,111.011,3,-57.587,0\H,1,1.095242,2,111.955,3,62.695,
 0\H,4,1.095565,3,111.079,2,-177.283,0\H,4,1.097033,3,111.011,2,-57.588
 ,0\H,4,1.095241,3,111.955,2,62.693,0\\Version=EM64L-G09RevD.01\State=1

 Normal termination of Gaussian 09 at Sun Feb 14 00:12:14 2016.
