 Gaussian 09, Revision D.01,
 Gaussian 09:  EM64L-G09RevD.01 24-Apr-2013

 -------------
 # mp2/cc-pVTZ
 -------------

 -----------------------------
 cyclohexene_boat_single_point
 -----------------------------
 Symbolic Z-matrix:
 Charge =  0 Multiplicity = 1

                         Standard orientation:
 ---------------------------------------------------------------------
 Center     Atomic      Atomic             Coordinates (Angstroms)
 Number     Number       Type             X           Y           Z
 ---------------------------------------------------------------------
      1          6           0       -0.768249   -1.226753   -0.191762
      2          6           0       -1.403164    0.081951    0.343874
      3          6           0       -0.680502    1.297990   -0.180283
      4          6           0        0.659492    1.308651   -0.180733
      5          6           0        1.401872    0.104464    0.343349
      6          6           0        0.787672   -1.214814   -0.190725
      7          1           0        1.217249    2.168825   -0.544635
      8          1           0       -1.252135    2.149159   -0.543832
      9          1           0       -2.468084    0.110618    0.089427
     10          1           0       -1.353126    0.079804    1.444080
     11          1           0        1.352802    0.102330    1.443596
     12          1           0        2.466005    0.150074    0.088072
     13          1           0        1.177236   -2.053470    0.397780
     14          1           0        1.147082   -1.364244   -1.214861
     15          1           0       -1.145631   -2.072404    0.394670
     16          1           0       -1.124129   -1.379635   -1.216623
 ---------------------------------------------------------------------

 SCF Done:  E(RHF) =  -233.086407288     A.U. after   11 cycles
 E2 =    -0.1010629721D+01 EUMP2 =    -0.23409703700954D+03

 The electronic state is 1-A.
 Alpha  occ. eigenvalues --  -11.22182 -11.22181 -11.21929 -11.21897 -11.21875
 Alpha  occ. eigenvalues --  -11.21732  -1.11212  -0.99801  -0.99432  -0.84479
 Alpha  occ. eigenvalues --   -0.80771  -0.68772  -0.66526  -0.63763  -0.55406
 Alpha  occ. eigenvalues --   -0.55169  -0.54826  -0.52393  -0.52332  -0.45514
 Alpha  occ. eigenvalues --   -0.45059  -0.43325  -0.33884
 Alpha virt. eigenvalues --    0.13802   0.15435   0.16724   0.17801   0.17841
 Alpha virt. eigenvalues --    0.19805   0.20807   0.21729   0.22623   0.24758
 Alpha virt. eigenvalues --    0.27499   0.29650   0.34729   0.35051   0.39519

 Mulliken charges:
               1
     1  C   -0.185212
     2  C   -0.157632
     3  C   -0.209633
     4  C   -0.209563
     5  C   -0.157691
     6  C   -0.185246
     7  H    0.157043
     8  H    0.157043
     9  H    0.107207
    10  H    0.095318
    11  H    0.095340
    12  H    0.107212
    13  H    0.099658
    14  H    0.093249
    15  H    0.099683
    16  H    0.093223
 Sum of Mulliken charges =   0.00000

 Dipole moment (field-independent basis, Debye):
    X=              0.0022    Y=             -0.2614    Z=              0.0924  Tot=              0.2772
 Quadrupole moment (field-independent basis, Debye-Ang):
   XX=            -37.3299   YY=            -39.0900   ZZ=            -39.5944
   XY=              0.0139   XZ=              0.0069   YZ=             -0.9683

 1\1\GINC-MEGATRON\SP\RMP2-FC\CC-pVTZ\C6H10\STYLIANAKIS\14-Feb-2016\0\\
 # mp2/cc-pVTZ\\cyclohexene_boat_single_point\\0,1\C\C,1,1.550074\C,2,1
 .508553,1,111.364\C,3,1.340036,2,119.049,1,-44.581,0\C,4,1.508594,3,11
 9.053,2,-0.02,0\C,5,1.550152,4,111.387,3,44.562,0\H,4,1.08785,3,121.27
 2,2,-179.62,0\H,3,1.087851,4,121.273,5,179.602,0\H,2,1.095272,3,111.34
 3,4,-167.599,0\H,2,1.101345,3,109.081,4,75.718,0\H,5,1.101342,4,109.06
 7,3,-75.738,0\H,5,1.095274,4,111.34,3,167.596,0\H,6,1.096103,5,108.988
 ,4,-165.782,0\H,6,1.095609,5,107.948,4,79.146,0\H,1,1.096105,2,108.994

 Normal termination of Gaussian 09 at Sun Feb 14 17:34:05 2016.
