 Gaussian 09, Revision D.01,
 Gaussian 09:  EM64L-G09RevD.01 24-Apr-2013

 -------------
 # mp2/cc-pVTZ
 -------------

 ----------------------------
 cyclooctane_tcc_single_point
 ----------------------------
 Symbolic Z-matrix:
 Charge =  0 Multiplicity = 1

                         Standard orientation:
 ---------------------------------------------------------------------
 Center     Atomic      Atomic             Coordinates (Angstroms)
 Number     Number       Type             X           Y           Z
 ---------------------------------------------------------------------
      1          6           0        0.735013   -1.704972    0.300126
      2          6           0        1.755094   -0.697745   -0.263270
      3          6           0        1.733304    0.748375    0.263815
      4          6           0        0.684366    1.725027   -0.300639
      5          6           0       -0.735025    1.704983    0.300120
      6          6           0       -1.755099    0.697739   -0.263272
      7          6           0       -1.733296   -0.748375    0.263821
      8          6           0       -0.684363   -1.725027   -0.300643
      9          1           0        1.160634   -2.704388    0.140434
     10          1           0        0.667898   -1.585681    1.391804
     11          1           0       -1.080776   -2.736556   -0.142117
     12          1           0       -0.620605   -1.602641   -1.392173
     13          1           0        1.684490   -0.685567   -1.361321
     14          1           0        2.752549   -1.098107   -0.037861
     15          1           0       -2.718566   -1.178314    0.039282
     16          1           0       -1.662227   -0.734115    1.361818
     17          1           0        2.718570    1.178311    0.039253
     18          1           0        1.662253    0.734126    1.361814
     19          1           0        1.080793    2.736552   -0.142111
     20          1           0        0.620628    1.602622   -1.392168
     21          1           0       -1.684484    0.685521   -1.361322
     22          1           0       -2.752556    1.098109   -0.037889
     23          1           0       -1.160643    2.704397    0.140410
     24          1           0       -0.667921    1.585706    1.391802
 ---------------------------------------------------------------------

 SCF Done:  E(RHF) =  -312.358341484     A.U. after   11 cycles
 E2 =    -0.1394690224D+01 EUMP2 =    -0.31375303170825D+03

 The electronic state is 1-A.
 Alpha  occ. eigenvalues --  -11.21452 -11.21436 -11.21436 -11.21396 -11.21396
 Alpha  occ. eigenvalues --  -11.21354 -11.21354 -11.21336  -1.09271  -1.03776
 Alpha  occ. eigenvalues --   -1.03716  -0.91554  -0.91551  -0.78432  -0.78226
 Alpha  occ. eigenvalues --   -0.75348  -0.63874  -0.61178  -0.61037  -0.57621
 Alpha  occ. eigenvalues --   -0.57555  -0.55508  -0.53441  -0.53419  -0.50125
 Alpha  occ. eigenvalues --   -0.46068  -0.46067  -0.46057  -0.45969  -0.45134
 Alpha  occ. eigenvalues --   -0.41847  -0.41825
 Alpha virt. eigenvalues --    0.13749   0.15302   0.15961   0.16080   0.19191
 Alpha virt. eigenvalues --    0.19195   0.19918   0.21830   0.22084   0.22788
 Alpha virt. eigenvalues --    0.22859   0.23688   0.23706   0.24337   0.28563

 Mulliken charges:
               1
     1  C   -0.194053
     2  C   -0.192332
     3  C   -0.192357
     4  C   -0.194117
     5  C   -0.194054
     6  C   -0.192331
     7  C   -0.192357
     8  C   -0.194117
     9  H    0.106078
    10  H    0.087560
    11  H    0.106088
    12  H    0.087578
    13  H    0.087144
    14  H    0.105629
    15  H    0.105618
    16  H    0.087164
    17  H    0.105618
    18  H    0.087164
    19  H    0.106087
    20  H    0.087577
    21  H    0.087143
    22  H    0.105631
    23  H    0.106079
    24  H    0.087561
 Sum of Mulliken charges =   0.00000

 Dipole moment (field-independent basis, Debye):
    X=              0.0000    Y=              0.0000    Z=              0.0000  Tot=              0.0000
 Quadrupole moment (field-independent basis, Debye-Ang):
   XX=            -54.2665   YY=            -54.1955   ZZ=            -53.9035
   XY=             -0.0009   XZ=              0.0000   YZ=              0.0001

 1\1\GINC-MEGATRON\SP\RMP2-FC\CC-pVTZ\C8H16\STYLIANAKIS\14-Feb-2016\0\\
 # mp2/cc-pVTZ\\cyclooctane_tcc_single_point\\0,1\C\C,1,1.540288\C,2,1.
 539337,1,118.666\C,3,1.540366,2,118.673,1,-80.089,0\C,4,1.541422,3,118
 .424,2,82.994,0\C,5,1.540293,4,118.41,3,-85.843,0\C,6,1.539334,5,118.6
 66,4,82.884,0\C,7,1.540366,6,118.673,5,-80.09,0\H,1,1.097947,8,106.764
 ,7,154.042,0\H,1,1.100226,8,109.388,7,40.386,0\H,8,1.097937,1,106.749,
 2,154.041,0\H,8,1.100219,1,109.382,2,40.396,0\H,2,1.100386,1,109.253,8
 ,-43.257,0\H,2,1.098187,1,106.741,8,-156.869,0\H,7,1.098191,8,106.726,

 Normal termination of Gaussian 09 at Sun Feb 14 18:19:20 2016.
