 Gaussian 09, Revision D.01,
 Gaussian 09:  EM64L-G09RevD.01 24-Apr-2013

 -------------
 # mp2/cc-pVTZ
 -------------

 ---------------------------
 cyclooctane_BC_single_point
 ---------------------------
 Symbolic Z-matrix:
 Charge =  0 Multiplicity = 1

                         Standard orientation:
 ---------------------------------------------------------------------
 Center     Atomic      Atomic             Coordinates (Angstroms)
 Number     Number       Type             X           Y           Z
 ---------------------------------------------------------------------
      1          6           0       -1.197740   -1.329224   -0.318165
      2          6           0       -1.944399   -0.000089   -0.085854
      3          6           0       -1.197860    1.329134   -0.318116
      4          6           0       -0.013382    1.618215    0.635778
      5          6           0        1.394023    1.315852    0.075538
      6          6           0        1.586562    0.000063   -0.695024
      7          6           0        1.394155   -1.315715    0.075595
      8          6           0       -0.013239   -1.618239    0.635765
      9          1           0       -0.863381   -1.391533   -1.363145
     10          1           0       -1.940501   -2.128947   -0.202905
     11          1           0       -0.027144   -2.681071    0.908583
     12          1           0       -0.170908   -1.078009    1.576526
     13          1           0       -2.834101   -0.000102   -0.730713
     14          1           0       -2.325304   -0.000106    0.946668
     15          1           0        1.668321   -2.131713   -0.607937
     16          1           0        2.118489   -1.362002    0.901392
     17          1           0       -0.863540    1.391522   -1.363104
     18          1           0       -1.940693    2.128782   -0.202789
     19          1           0       -0.027376    2.681029    0.908670
     20          1           0       -0.170964    1.077914    1.576513
     21          1           0        0.933194    0.000007   -1.577038
     22          1           0        2.608743    0.000116   -1.097079
     23          1           0        1.668049    2.131867   -0.608036
     24          1           0        2.118396    1.362257    0.901293
 ---------------------------------------------------------------------

 SCF Done:  E(RHF) =  -312.358787291     A.U. after   11 cycles
 E2 =    -0.1397896650D+01 EUMP2 =    -0.31375668394046D+03

 The electronic state is 1-A.
 Alpha  occ. eigenvalues --  -11.21559 -11.21464 -11.21463 -11.21450 -11.21442
 Alpha  occ. eigenvalues --  -11.21325 -11.21325 -11.21263  -1.09655  -1.03515
 Alpha  occ. eigenvalues --   -1.03318  -0.91654  -0.91292  -0.79153  -0.78959
 Alpha  occ. eigenvalues --   -0.73449  -0.64096  -0.62748  -0.59487  -0.58846
 Alpha  occ. eigenvalues --   -0.57160  -0.56543  -0.54915  -0.50668  -0.48451
 Alpha  occ. eigenvalues --   -0.48073  -0.46808  -0.46461  -0.45945  -0.43339
 Alpha  occ. eigenvalues --   -0.42583  -0.41747
 Alpha virt. eigenvalues --    0.13767   0.15254   0.15749   0.16025   0.19213
 Alpha virt. eigenvalues --    0.19677   0.19923   0.20470   0.20659   0.23285
 Alpha virt. eigenvalues --    0.24199   0.24812   0.24914   0.25489   0.27761

 Mulliken charges:
               1
     1  C   -0.209769
     2  C   -0.184499
     3  C   -0.209765
     4  C   -0.214489
     5  C   -0.182762
     6  C   -0.219369
     7  C   -0.182759
     8  C   -0.214493
     9  H    0.094276
    10  H    0.112899
    11  H    0.114223
    12  H    0.093315
    13  H    0.105341
    14  H    0.086931
    15  H    0.098648
    16  H    0.095923
    17  H    0.094276
    18  H    0.112896
    19  H    0.114223
    20  H    0.093313
    21  H    0.090761
    22  H    0.116308
    23  H    0.098647
    24  H    0.095923
 Sum of Mulliken charges =   0.00000

 Dipole moment (field-independent basis, Debye):
    X=             -0.0292    Y=              0.0000    Z=             -0.0188  Tot=              0.0347
 Quadrupole moment (field-independent basis, Debye-Ang):
   XX=            -54.3936   YY=            -54.1437   ZZ=            -53.8489
   XY=             -0.0001   XZ=              0.0146   YZ=              0.0001

 1\1\GINC-MEGATRON\SP\RMP2-FC\CC-pVTZ\C8H16\STYLIANAKIS\14-Feb-2016\0\\
 # mp2/cc-pVTZ\\cyclooctane_BC_single_point\\0,1\C\C,1,1.542099\C,2,1.5
 42109,1,119.067\C,3,1.548054,2,116.012,1,-65.178,0\C,4,1.544694,3,115.
 919,2,99.635,0\C,5,1.536925,4,117.617,3,-43.761,0\C,6,1.536927,5,117.7
 66,4,-63.952,0\C,7,1.54469,6,117.617,5,63.956,0\H,1,1.098937,8,110.033
 ,7,25.812,0\H,1,1.097513,8,108.486,7,140.565,0\H,8,1.097377,1,108.924,
 2,139.761,0\H,8,1.096239,1,109.072,2,25.448,0\H,2,1.098823,1,107.675,8
 ,-172.023,0\H,2,1.10054,1,107.993,8,-58.33,0\H,7,1.099198,8,107.901,1,

 Normal termination of Gaussian 09 at Sun Feb 14 17:52:06 2016.
