 Gaussian 09, Revision D.01,
 Gaussian 09:  EM64L-G09RevD.01 24-Apr-2013

 -------------
 # mp2/cc-pVTZ
 -------------

 ---------------------------
 cyclooctane_cc_single_point
 ---------------------------
 Symbolic Z-matrix:
 Charge =  0 Multiplicity = 1

                         Standard orientation:
 ---------------------------------------------------------------------
 Center     Atomic      Atomic             Coordinates (Angstroms)
 Number     Number       Type             X           Y           Z
 ---------------------------------------------------------------------
      1          6           0        1.310551   -1.337626    0.282076
      2          6           0        1.873452   -0.019253   -0.281141
      3          6           0        1.337760    1.310524    0.281954
      4          6           0        0.019210    1.871643   -0.282828
      5          6           0       -1.310556    1.337629    0.282074
      6          6           0       -1.873459    0.019254   -0.281139
      7          6           0       -1.337756   -1.310520    0.281946
      8          6           0       -0.019199   -1.871643   -0.282818
      9          1           0        1.238102   -1.264543    1.377602
     10          1           0        2.066942   -2.110177    0.089416
     11          1           0       -0.030431   -2.953114   -0.091941
     12          1           0       -0.018018   -1.767208   -1.378194
     13          1           0        2.954370   -0.030437   -0.087126
     14          1           0        1.771990   -0.018286   -1.376784
     15          1           0       -2.109984   -2.067207    0.089157
     16          1           0       -1.263998   -1.239022    1.377495
     17          1           0        1.263951    1.239008    1.377500
     18          1           0        2.109992    2.067212    0.089202
     19          1           0        0.030419    2.953127   -0.092002
     20          1           0        0.018043    1.767160   -1.378198
     21          1           0       -1.771962    0.018274   -1.376787
     22          1           0       -2.954378    0.030463   -0.087162
     23          1           0       -2.066959    2.110187    0.089482
     24          1           0       -1.238092    1.264512    1.377600
 ---------------------------------------------------------------------

 SCF Done:  E(RHF) =  -312.358347946     A.U. after   11 cycles
 E2 =    -0.1394681189D+01 EUMP2 =    -0.31375302913510D+03

 The electronic state is 1-A.
 Alpha  occ. eigenvalues --  -11.21454 -11.21439 -11.21438 -11.21398 -11.21398
 Alpha  occ. eigenvalues --  -11.21357 -11.21356 -11.21338  -1.09270  -1.03751
 Alpha  occ. eigenvalues --   -1.03747  -0.91557  -0.91555  -0.78332  -0.78324
 Alpha  occ. eigenvalues --   -0.75338  -0.63865  -0.61115  -0.61108  -0.57585
 Alpha  occ. eigenvalues --   -0.57584  -0.55481  -0.53441  -0.53439  -0.50139
 Alpha  occ. eigenvalues --   -0.46048  -0.46047  -0.46023  -0.46020  -0.45148
 Alpha  occ. eigenvalues --   -0.41837  -0.41832
 Alpha virt. eigenvalues --    0.13740   0.15302   0.16020   0.16025   0.19190
 Alpha virt. eigenvalues --    0.19190   0.19927   0.21994   0.22004   0.22761
 Alpha virt. eigenvalues --    0.22765   0.23685   0.23686   0.24386   0.28592

 Mulliken charges:
               1
     1  C   -0.193074
     2  C   -0.193036
     3  C   -0.193073
     4  C   -0.193131
     5  C   -0.193074
     6  C   -0.193031
     7  C   -0.193075
     8  C   -0.193132
     9  H    0.087361
    10  H    0.105726
    11  H    0.105728
    12  H    0.087369
    13  H    0.105710
    14  H    0.087343
    15  H    0.105727
    16  H    0.087354
    17  H    0.087352
    18  H    0.105731
    19  H    0.105726
    20  H    0.087367
    21  H    0.087335
    22  H    0.105714
    23  H    0.105728
    24  H    0.087354
 Sum of Mulliken charges =   0.00000

 Dipole moment (field-independent basis, Debye):
    X=              0.0000    Y=              0.0000    Z=             -0.0002  Tot=              0.0002
 Quadrupole moment (field-independent basis, Debye-Ang):
   XX=            -54.2333   YY=            -54.2333   ZZ=            -53.9030
   XY=              0.0000   XZ=             -0.0001   YZ=              0.0000

 1\1\GINC-MEGATRON\SP\RMP2-FC\CC-pVTZ\C8H16\STYLIANAKIS\14-Feb-2016\0\\
 # mp2/cc-pVTZ\\cyclooctane_cc_single_point\\0,1\C\C,1,1.540188\C,2,1.5
 40243,1,118.569\C,3,1.540262,2,118.568,1,-82.878,0\C,4,1.540312,3,118.
 572,2,83.023,0\C,5,1.540189,4,118.566,3,-83.032,0\C,6,1.540241,5,118.5
 69,4,82.885,0\C,7,1.540263,6,118.569,5,-82.877,0\H,1,1.100349,8,109.34
 9,7,43.195,0\H,1,1.098217,8,106.641,7,156.774,0\H,8,1.098244,1,106.648
 ,2,156.766,0\H,8,1.100344,1,109.345,2,43.202,0\H,2,1.098248,1,106.642,
 8,-156.898,0\H,2,1.100332,1,109.34,8,-43.327,0\H,7,1.098216,8,106.653,

 Normal termination of Gaussian 09 at Sun Feb 14 18:05:43 2016.
