 Gaussian 09, Revision D.01,
 Gaussian 09:  EM64L-G09RevD.01 24-Apr-2013

 -------------
 # mp2/cc-pVTZ
 -------------

 ---------------------------
 cyclohexane_ch_single_point
 ---------------------------
 Symbolic Z-matrix:
 Charge =  0 Multiplicity = 1

                         Standard orientation:
 ---------------------------------------------------------------------
 Center     Atomic      Atomic             Coordinates (Angstroms)
 Number     Number       Type             X           Y           Z
 ---------------------------------------------------------------------
      1          6           0        1.418428    0.380172    0.228411
      2          6           0        1.038649   -1.038012   -0.228331
      3          6           0       -0.379957   -1.418345    0.228262
      4          6           0       -1.418435   -0.380182   -0.228405
      5          6           0       -1.038657    1.038009    0.228295
      6          6           0        0.379979    1.418352   -0.228227
      7          1           0       -0.398833   -1.487532    1.326127
      8          1           0       -0.646679   -2.413035   -0.150499
      9          1           0       -1.487866   -0.398681   -1.326237
     10          1           0       -1.766529    1.766165   -0.151151
     11          1           0        1.766558   -1.766180    0.151019
     12          1           0        0.398871    1.487562   -1.326090
     13          1           0        2.413009    0.646437   -0.150823
     14          1           0        1.487824    0.398635    1.326251
     15          1           0       -1.089882    1.089272    1.326124
     16          1           0       -2.413006   -0.646459    0.150862
     17          1           0        0.646693    2.413041    0.150553
     18          1           0        1.089793   -1.089187   -1.326171
 ---------------------------------------------------------------------

 SCF Done:  E(RHF) =  -234.285126518     A.U. after   10 cycles
 E2 =    -0.1043334655D+01 EUMP2 =    -0.23532846117317D+03

 The electronic state is 1-A.
 Alpha  occ. eigenvalues --  -11.21465 -11.21438 -11.21436 -11.21379 -11.21377
 Alpha  occ. eigenvalues --  -11.21347  -1.10591  -0.99583  -0.99568  -0.82422
 Alpha  occ. eigenvalues --   -0.82413  -0.74557  -0.64244  -0.60363  -0.59153
 Alpha  occ. eigenvalues --   -0.59144  -0.52131  -0.52121  -0.50951  -0.47761
 Alpha  occ. eigenvalues --   -0.47755  -0.44689  -0.42430  -0.42421
 Alpha virt. eigenvalues --    0.14059   0.15735   0.16724   0.16725   0.20833
 Alpha virt. eigenvalues --    0.20835   0.21246   0.22664   0.22669   0.23583
 Alpha virt. eigenvalues --    0.25223   0.25225   0.30364   0.34024   0.34028

 Mulliken charges:
               1
     1  C   -0.190267
     2  C   -0.190367
     3  C   -0.190403
     4  C   -0.190271
     5  C   -0.190370
     6  C   -0.190401
     7  H    0.084536
     8  H    0.105798
     9  H    0.084572
    10  H    0.105764
    11  H    0.105770
    12  H    0.084533
    13  H    0.105787
    14  H    0.084564
    15  H    0.084589
    16  H    0.105784
    17  H    0.105799
    18  H    0.084582
 Sum of Mulliken charges =   0.00000

 Dipole moment (field-independent basis, Debye):
    X=              0.0000    Y=              0.0000    Z=              0.0000  Tot=              0.0000
 Quadrupole moment (field-independent basis, Debye-Ang):
   XX=            -40.8747   YY=            -40.8774   ZZ=            -40.1083
   XY=              0.0006   XZ=             -0.0019   YZ=              0.0000

 1\1\GINC-MEGATRON\SP\RMP2-FC\CC-pVTZ\C6H12\STYLIANAKIS\14-Feb-2016\0\\
 # mp2/cc-pVTZ\\cyclohexane_ch_single_point\\0,1\C\C,1,1.53756\C,2,1.53
 8042,1,111.575\C,3,1.537779,2,111.578,1,54.44,0\C,4,1.537554,3,111.573
 ,2,-54.437,0\C,5,1.538051,4,111.577,3,54.433,0\H,3,1.100205,4,109.099,
 5,66.211,0\H,3,1.097273,4,110.202,5,-177.248,0\H,4,1.100181,3,109.123,
 2,66.215,0\H,5,1.097264,4,110.214,3,177.19,0\H,2,1.097263,3,110.19,4,1
 77.213,0\H,6,1.100205,5,109.122,4,66.197,0\H,1,1.097227,2,110.185,3,-1
 77.214,0\H,1,1.100186,2,109.116,3,66.218,0\H,5,1.100218,4,109.139,3,-6

 Normal termination of Gaussian 09 at Sun Feb 14 17:25:09 2016.
