 Gaussian 09, Revision D.01,
 Gaussian 09:  EM64L-G09RevD.01 24-Apr-2013

 -------------
 # mp2/cc-pVTZ
 -------------

 ------------------------------
 cyclohexane_twb_A_single_point
 ------------------------------
 Symbolic Z-matrix:
 Charge =  0 Multiplicity = 1

                         Standard orientation:
 ---------------------------------------------------------------------
 Center     Atomic      Atomic             Coordinates (Angstroms)
 Number     Number       Type             X           Y           Z
 ---------------------------------------------------------------------
      1          6           0        1.528921   -0.000011    0.000036
      2          6           0        0.666105   -1.228748    0.381622
      3          6           0       -0.666129   -1.228712   -0.381663
      4          6           0       -1.528909   -0.000001    0.000036
      5          6           0       -0.666101    1.228756    0.381631
      6          6           0        0.666114    1.228725   -0.381670
      7          1           0       -0.455759   -1.216767   -1.459749
      8          1           0       -1.222416   -2.154000   -0.191139
      9          1           0       -2.187651   -0.255074    0.839627
     10          1           0       -1.222401    2.154023    0.191039
     11          1           0        1.222369   -2.154033    0.191028
     12          1           0        0.455741    1.216741   -1.459751
     13          1           0        2.187819   -0.255046   -0.839442
     14          1           0        2.187647    0.255071    0.839638
     15          1           0       -0.455714    1.216893    1.459712
     16          1           0       -2.187790    0.255036   -0.839457
     17          1           0        1.222423    2.154003   -0.191166
     18          1           0        0.455730   -1.216901    1.459710
 ---------------------------------------------------------------------

 SCF Done:  E(RHF) =  -234.274234417     A.U. after   11 cycles
 E2 =    -0.1044212953D+01 EUMP2 =    -0.23531844736978D+03

 The electronic state is 1-A.
 Alpha  occ. eigenvalues --  -11.21465 -11.21453 -11.21415 -11.21384 -11.21354
 Alpha  occ. eigenvalues --  -11.21337  -1.10400  -0.99255  -0.99065  -0.83472
 Alpha  occ. eigenvalues --   -0.82554  -0.72034  -0.64902  -0.64200  -0.58990
 Alpha  occ. eigenvalues --   -0.55293  -0.52049  -0.51000  -0.50245  -0.49810
 Alpha  occ. eigenvalues --   -0.48898  -0.42767  -0.42602  -0.42416
 Alpha virt. eigenvalues --    0.13665   0.15715   0.16842   0.17195   0.19903
 Alpha virt. eigenvalues --    0.20553   0.20979   0.21808   0.23176   0.24713
 Alpha virt. eigenvalues --    0.25859   0.26627   0.30270   0.34589   0.34627

 Mulliken charges:
               1
     1  C   -0.205594
     2  C   -0.188658
     3  C   -0.188650
     4  C   -0.205591
     5  C   -0.188658
     6  C   -0.188655
     7  H    0.085267
     8  H    0.108270
     9  H    0.097911
    10  H    0.108268
    11  H    0.108269
    12  H    0.085269
    13  H    0.097917
    14  H    0.097910
    15  H    0.085272
    16  H    0.097914
    17  H    0.108271
    18  H    0.085268
 Sum of Mulliken charges =   0.00000

 Dipole moment (field-independent basis, Debye):
    X=              0.0000    Y=              0.0000    Z=              0.0000  Tot=              0.0000
 Quadrupole moment (field-independent basis, Debye-Ang):
   XX=            -41.0012   YY=            -40.6974   ZZ=            -40.0393
   XY=              0.0000   XZ=              0.0000   YZ=              0.0000

 1\1\GINC-MEGATRON\SP\RMP2-FC\CC-pVTZ\C6H12\STYLIANAKIS\14-Feb-2016\0\\
 # mp2/cc-pVTZ\\cyclohexane_twb_A_single_point\\0,1\C\C,1,1.549146\C,2,
 1.535399,1,111.149\C,3,1.549133,2,111.148,1,-63.48,0\C,4,1.54916,3,112
 .31,2,30.604,0\C,5,1.535391,4,111.148,3,30.596,0\H,3,1.098484,4,109.86
 8,5,-89.832,0\H,3,1.096318,4,110.121,5,153.683,0\H,4,1.097231,3,109.78
 7,2,-91.201,0\H,5,1.096319,4,110.12,3,153.675,0\H,2,1.096316,3,110.723
 ,4,173.787,0\H,6,1.09848,5,108.768,4,57.602,0\H,1,1.09723,2,109.789,3,
 -91.212,0\H,1,1.097232,2,109.286,3,152.684,0\H,5,1.098481,4,109.868,3,

 Normal termination of Gaussian 09 at Sun Feb 14 17:30:17 2016.
