 Gaussian 09, Revision D.01,
 Gaussian 09:  EM64L-G09RevD.01 24-Apr-2013

 -------------
 # mp2/cc-pVTZ
 -------------

 ----------------------------------
 cyclohexene_halfchair_single_point
 ----------------------------------
 Symbolic Z-matrix:
 Charge =  0 Multiplicity = 1

                         Standard orientation:
 ---------------------------------------------------------------------
 Center     Atomic      Atomic             Coordinates (Angstroms)
 Number     Number       Type             X           Y           Z
 ---------------------------------------------------------------------
      1          6           0       -0.698897   -1.193188    0.318231
      2          6           0       -1.499792    0.047641   -0.110567
      3          6           0       -0.667532    1.306940   -0.056852
      4          6           0        0.667545    1.306935    0.056838
      5          6           0        1.499789    0.047632    0.110607
      6          6           0        0.698895   -1.193171   -0.318259
      7          1           0        1.198388    2.256415    0.112409
      8          1           0       -1.198359    2.256420   -0.112512
      9          1           0       -1.888322   -0.088756   -1.132079
     10          1           0       -2.386658    0.164672    0.526461
     11          1           0        1.888167   -0.088781    1.132177
     12          1           0        2.386734    0.164619   -0.526311
     13          1           0        1.244938   -2.106032   -0.052094
     14          1           0        0.594631   -1.194591   -1.412143
     15          1           0       -0.594633   -1.194669    1.412117
     16          1           0       -1.244922   -2.106030    0.051984
 ---------------------------------------------------------------------

 SCF Done:  E(RHF) =  -233.097037141     A.U. after   11 cycles
 E2 =    -0.1008780901D+01 EUMP2 =    -0.23410581804216D+03

 The electronic state is 1-A.
 Alpha  occ. eigenvalues --  -11.22201 -11.22197 -11.22060 -11.21898 -11.21823
 Alpha  occ. eigenvalues --  -11.21763  -1.11315  -1.00055  -0.99812  -0.84276
 Alpha  occ. eigenvalues --   -0.81332  -0.69537  -0.66294  -0.61080  -0.58032
 Alpha  occ. eigenvalues --   -0.56321  -0.53531  -0.52674  -0.52166  -0.46251
 Alpha  occ. eigenvalues --   -0.44901  -0.43516  -0.33924
 Alpha virt. eigenvalues --    0.13649   0.16646   0.16780   0.17332   0.18164
 Alpha virt. eigenvalues --    0.20150   0.20456   0.22071   0.22748   0.23980
 Alpha virt. eigenvalues --    0.25499   0.31054   0.33747   0.36098   0.37589

 Mulliken charges:
               1
     1  C   -0.187930
     2  C   -0.141160
     3  C   -0.205316
     4  C   -0.205314
     5  C   -0.141160
     6  C   -0.187927
     7  H    0.149665
     8  H    0.149668
     9  H    0.093338
    10  H    0.099412
    11  H    0.093334
    12  H    0.099417
    13  H    0.103337
    14  H    0.088648
    15  H    0.088648
    16  H    0.103340
 Sum of Mulliken charges =   0.00000

 Dipole moment (field-independent basis, Debye):
    X=              0.0000    Y=             -0.3033    Z=              0.0000  Tot=              0.3033
 Quadrupole moment (field-independent basis, Debye-Ang):
   XX=            -37.3477   YY=            -38.5584   ZZ=            -39.9792
   XY=              0.0000   XZ=              0.2642   YZ=             -0.0001

 1\1\GINC-MEGATRON\SP\RMP2-FC\CC-pVTZ\C6H10\STYLIANAKIS\14-Feb-2016\0\\
 # mp2/cc-pVTZ\\cyclohexene_halfchair_single_point\\0,1\C\C,1,1.537842\
 C,2,1.510422,1,112.076\C,3,1.339909,2,123.507,1,13.903,0\C,4,1.510419,
 3,123.507,2,1.553,0\C,5,1.537839,4,112.075,3,13.908,0\H,4,1.089218,3,1
 19.336,2,-178.599,0\H,3,1.089214,4,119.336,5,-178.596,0\H,2,1.101384,3
 ,109.306,4,-108.345,0\H,2,1.098195,3,109.603,4,136.548,0\H,5,1.101386,
 4,109.304,3,-108.336,0\H,5,1.09819,4,109.606,3,136.555,0\H,6,1.096505,
 5,110.162,4,-166.998,0\H,6,1.098842,5,109.152,4,76.124,0\H,1,1.098845,

 Normal termination of Gaussian 09 at Sun Feb 14 17:37:52 2016.
