 Gaussian 09, Revision D.01,
 Gaussian 09:  EM64L-G09RevD.01 24-Apr-2013

 -------------
 # mp2/cc-pVTZ
 -------------

 ---------------------
 DiPhEt_a_single_point
 ---------------------
 Symbolic Z-matrix:
 Charge =  0 Multiplicity = 1

                         Standard orientation:
 ---------------------------------------------------------------------
 Center     Atomic      Atomic             Coordinates (Angstroms)
 Number     Number       Type             X           Y           Z
 ---------------------------------------------------------------------
      1          6           0        3.987437   -1.206967   -0.078744
      2          6           0        2.621376   -1.204048    0.214998
      3          6           0        1.916290   -0.000356    0.364849
      4          6           0        2.620753    1.203713    0.214933
      5          6           0        3.986791    1.207334   -0.078805
      6          6           0        4.675557    0.000361   -0.227771
      7          6           0        0.429035   -0.000692    0.646124
      8          6           0       -0.429040    0.000662   -0.646091
      9          6           0       -1.916302    0.000302   -0.364841
     10          6           0       -2.620856   -1.203730   -0.215289
     11          6           0       -3.986927   -1.207297    0.078431
     12          6           0       -4.675558   -0.000316    0.227749
     13          6           0       -3.987299    1.206996    0.079085
     14          6           0       -2.621261    1.204029   -0.214630
     15          1           0        0.163656    0.877519    1.246606
     16          1           0        0.163725   -0.880209    1.244717
     17          1           0       -0.163755    0.880188   -1.244691
     18          1           0       -0.163623   -0.877533   -1.246574
     19          1           0       -2.095349   -2.148387   -0.336671
     20          1           0       -2.096003    2.148888   -0.335510
     21          1           0       -4.513427   -2.151715    0.185334
     22          1           0       -5.738113   -0.000523    0.452963
     23          1           0       -4.514151    2.151159    0.186513
     24          1           0        2.096248   -2.148948    0.336140
     25          1           0        2.095117    2.148334    0.336046
     26          1           0        4.513230    2.151756   -0.185979
     27          1           0        5.738109    0.000649   -0.453004
     28          1           0        4.514351   -2.151127   -0.185881
 ---------------------------------------------------------------------

 SCF Done:  E(RHF) =  -538.490585543     A.U. after   14 cycles
 E2 =    -0.2238414349D+01 EUMP2 =    -0.54072899989173D+03

 The electronic state is 1-A.
 Alpha  occ. eigenvalues --  -11.24089 -11.24088 -11.23497 -11.23497 -11.23478
 Alpha  occ. eigenvalues --  -11.23478 -11.23212 -11.23157 -11.23134 -11.23134
 Alpha  occ. eigenvalues --  -11.23107 -11.23107 -11.23094 -11.23094  -1.15415
 Alpha  occ. eigenvalues --   -1.14717  -1.07305  -1.02597  -1.00985  -1.00958
 Alpha  occ. eigenvalues --   -0.96244  -0.87401  -0.82531  -0.82237  -0.79817
 Alpha  occ. eigenvalues --   -0.78292  -0.69315  -0.68975  -0.64846  -0.63963
 Alpha  occ. eigenvalues --   -0.62814  -0.62349  -0.58569  -0.58404  -0.58179
 Alpha  occ. eigenvalues --   -0.56745  -0.55854  -0.53773  -0.50554  -0.50410
 Alpha  occ. eigenvalues --   -0.48988  -0.48731  -0.47964  -0.47474  -0.46771
 Alpha  occ. eigenvalues --   -0.33446  -0.33383  -0.33113  -0.31813
 Alpha virt. eigenvalues --    0.12130   0.12483   0.12581   0.13007   0.13858
 Alpha virt. eigenvalues --    0.14977   0.15210   0.16263   0.17557   0.18656
 Alpha virt. eigenvalues --    0.18934   0.19479   0.20181   0.23006   0.23034

 Mulliken charges:
               1
     1  C   -0.135063
     2  C   -0.199244
     3  C    0.077242
     4  C   -0.199290
     5  C   -0.135085
     6  C   -0.172909
     7  C   -0.211865
     8  C   -0.211871
     9  C    0.077262
    10  C   -0.199300
    11  C   -0.135075
    12  C   -0.172916
    13  C   -0.135055
    14  C   -0.199259
    15  H    0.117076
    16  H    0.117017
    17  H    0.117019
    18  H    0.117073
    19  H    0.145248
    20  H    0.145238
    21  H    0.150428
    22  H    0.150781
    23  H    0.150428
    24  H    0.145237
    25  H    0.145246
    26  H    0.150428
    27  H    0.150780
    28  H    0.150432
 Sum of Mulliken charges =   0.00000

 Dipole moment (field-independent basis, Debye):
    X=              0.0000    Y=              0.0000    Z=              0.0000  Tot=              0.0000
 Quadrupole moment (field-independent basis, Debye-Ang):
   XX=            -78.8593   YY=            -75.4303   ZZ=            -91.6464
   XY=              0.0004   XZ=             -3.2995   YZ=              0.0018

 Normal termination of Gaussian 09 at Sun Feb 14 00:52:53 2016.
