 Gaussian 09, Revision D.01,
 Gaussian 09:  EM64L-G09RevD.01 24-Apr-2013

 -------------
 # mp2/cc-pVTZ
 -------------

 ---------------------
 DiPhEt_g_single_point
 ---------------------
 Symbolic Z-matrix:
 Charge =  0 Multiplicity = 1

                         Standard orientation:
 ---------------------------------------------------------------------
 Center     Atomic      Atomic             Coordinates (Angstroms)
 Number     Number       Type             X           Y           Z
 ---------------------------------------------------------------------
      1          6           0       -2.347629   -1.489272   -0.981089
      2          6           0       -1.452622   -0.427904   -1.143577
      3          6           0       -1.557371    0.730687   -0.360617
      4          6           0       -2.587575    0.797640    0.590738
      5          6           0       -3.483721   -0.260373    0.758883
      6          6           0       -3.365982   -1.410129   -0.027983
      7          6           0       -0.581178    1.877453   -0.516704
      8          6           0        0.581143    1.877455    0.516721
      9          6           0        1.557357    0.730709    0.360617
     10          6           0        1.452716   -0.427834    1.143660
     11          6           0        2.347754   -1.489178    0.981171
     12          6           0        3.365976   -1.410083    0.027985
     13          6           0        3.483640   -0.260380   -0.758974
     14          6           0        2.587494    0.797632   -0.590836
     15          1           0       -1.120480    2.827159   -0.412498
     16          1           0       -0.155558    1.865338   -1.526779
     17          1           0        1.120428    2.827173    0.412530
     18          1           0        0.155524    1.865319    1.526796
     19          1           0        0.662124   -0.499751    1.885939
     20          1           0        2.693009    1.691825   -1.201666
     21          1           0        2.248853   -2.376536    1.600301
     22          1           0        4.064145   -2.232757   -0.097250
     23          1           0        4.276957   -0.184444   -1.497607
     24          1           0       -0.661975   -0.499855   -1.885794
     25          1           0       -2.693172    1.691873    1.201494
     26          1           0       -4.277095   -0.184396    1.497452
     27          1           0       -4.064134   -2.232818    0.097256
     28          1           0       -2.248643   -2.376668   -1.600154
 ---------------------------------------------------------------------

 SCF Done:  E(RHF) =  -538.488824236     A.U. after   13 cycles
 E2 =    -0.2241750039D+01 EUMP2 =    -0.54073057427504D+03

 The electronic state is 1-A.
 Alpha  occ. eigenvalues --  -11.23791 -11.23791 -11.23280 -11.23260 -11.23260
 Alpha  occ. eigenvalues --  -11.23225 -11.23138 -11.23138 -11.22922 -11.22922
 Alpha  occ. eigenvalues --  -11.22900 -11.22900 -11.22717 -11.22717  -1.15250
 Alpha  occ. eigenvalues --   -1.14359  -1.07119  -1.02199  -1.00700  -1.00677
 Alpha  occ. eigenvalues --   -0.96281  -0.87301  -0.82201  -0.82065  -0.80025
 Alpha  occ. eigenvalues --   -0.77541  -0.69181  -0.68542  -0.64337  -0.63868
 Alpha  occ. eigenvalues --   -0.62274  -0.62130  -0.58741  -0.58141  -0.57829
 Alpha  occ. eigenvalues --   -0.57187  -0.55669  -0.53271  -0.51370  -0.49382
 Alpha  occ. eigenvalues --   -0.48927  -0.48391  -0.47682  -0.47075  -0.46676
 Alpha  occ. eigenvalues --   -0.33441  -0.33102  -0.32282  -0.31842
 Alpha virt. eigenvalues --    0.12190   0.12746   0.12780   0.13104   0.14497
 Alpha virt. eigenvalues --    0.15317   0.16252   0.16392   0.17747   0.18468
 Alpha virt. eigenvalues --    0.19253   0.19421   0.20632   0.21330   0.22392

 Mulliken charges:
               1
     1  C   -0.138191
     2  C   -0.176649
     3  C    0.062822
     4  C   -0.196883
     5  C   -0.142136
     6  C   -0.171458
     7  C   -0.213168
     8  C   -0.213160
     9  C    0.062802
    10  C   -0.176640
    11  C   -0.138180
    12  C   -0.171450
    13  C   -0.142139
    14  C   -0.196885
    15  H    0.118373
    16  H    0.108811
    17  H    0.118375
    18  H    0.108809
    19  H    0.152007
    20  H    0.146247
    21  H    0.150063
    22  H    0.150506
    23  H    0.149647
    24  H    0.152011
    25  H    0.146243
    26  H    0.149647
    27  H    0.150510
    28  H    0.150066
 Sum of Mulliken charges =   0.00000

 Dipole moment (field-independent basis, Debye):
    X=              0.0000    Y=              0.2801    Z=              0.0000  Tot=              0.2801
 Quadrupole moment (field-independent basis, Debye-Ang):
   XX=            -84.0247   YY=            -78.0253   ZZ=            -83.4496
   XY=             -0.0005   XZ=             -6.8107   YZ=             -0.0001

 Normal termination of Gaussian 09 at Sun Feb 14 01:36:40 2016.
