 Gaussian 09, Revision D.01,
 Gaussian 09:  EM64L-G09RevD.01 24-Apr-2013

 -------------
 # mp2/cc-pVTZ
 -------------

 --------------------
 Et4C_T3_single_point
 --------------------
 Symbolic Z-matrix:
 Charge =  0 Multiplicity = 1

                         Standard orientation:
 ---------------------------------------------------------------------
 Center     Atomic      Atomic             Coordinates (Angstroms)
 Number     Number       Type             X           Y           Z
 ---------------------------------------------------------------------
      1          6           0        1.914439    0.196426   -1.810632
      2          6           0        0.883026    0.899303   -0.914427
      3          6           0       -0.000119   -0.000132   -0.000048
      4          6           0       -0.883311    0.914140    0.899446
      5          6           0       -1.913547    1.811643    0.196502
      6          6           0        0.883176   -0.899544    0.914204
      7          6           0        1.914204   -0.196613    1.810812
      8          6           0       -0.883374   -0.914459   -0.899418
      9          6           0       -1.914576   -1.810857   -0.196469
     10          1           0        2.458251    0.937182   -2.407402
     11          1           0        2.656568   -0.361574   -1.230164
     12          1           0        1.446900   -0.502339   -2.511531
     13          1           0        2.458428   -0.937411    2.407152
     14          1           0        2.656033    0.362118    1.230662
     15          1           0        1.446300    0.501508    2.512111
     16          1           0       -2.457990   -2.408084   -0.937146
     17          1           0       -1.446923   -2.511325    0.502651
     18          1           0       -2.657071   -1.230490    0.361155
     19          1           0        0.220876    1.491930   -1.557173
     20          1           0        1.409649    1.626975   -0.283145
     21          1           0        0.221118   -1.492583    1.556669
     22          1           0       -1.410960    0.282623    1.626169
     23          1           0       -0.221164    1.555926    1.493118
     24          1           0       -2.457889    2.407815    0.937352
     25          1           0       -1.444949    2.513118   -0.500976
     26          1           0       -2.655349    1.232152   -0.362952
     27          1           0        1.410170   -1.626831    0.282787
     28          1           0       -0.221292   -1.557047   -1.492298
     29          1           0       -1.410219   -0.283105   -1.626864
 ---------------------------------------------------------------------

 SCF Done:  E(RHF) =  -352.574161212     A.U. after   11 cycles
 E2 =    -0.1609294446D+01 EUMP2 =    -0.35418345565819D+03

 The electronic state is 1-A.
 Alpha  occ. eigenvalues --  -11.22963 -11.21350 -11.21350 -11.21349 -11.21346
 Alpha  occ. eigenvalues --  -11.20957 -11.20957 -11.20957 -11.20957  -1.11260
 Alpha  occ. eigenvalues --   -1.01096  -1.00354  -1.00354  -0.91608  -0.84162
 Alpha  occ. eigenvalues --   -0.84161  -0.81961  -0.70153  -0.64215  -0.61048
 Alpha  occ. eigenvalues --   -0.60962  -0.60960  -0.58183  -0.55513  -0.55511
 Alpha  occ. eigenvalues --   -0.53650  -0.51577  -0.51576  -0.50335  -0.50037
 Alpha  occ. eigenvalues --   -0.49870  -0.48295  -0.48295  -0.45865  -0.42768
 Alpha  occ. eigenvalues --   -0.42119  -0.42119
 Alpha virt. eigenvalues --    0.13883   0.15102   0.15920   0.15920   0.19047
 Alpha virt. eigenvalues --    0.19325   0.19325   0.20520   0.20570   0.22810
 Alpha virt. eigenvalues --    0.23099   0.23100   0.23794   0.24037   0.25723

 Mulliken charges:
               1
     1  C   -0.311126
     2  C   -0.213524
     3  C    0.026241
     4  C   -0.213464
     5  C   -0.311136
     6  C   -0.213517
     7  C   -0.311128
     8  C   -0.213475
     9  C   -0.311119
    10  H    0.108166
    11  H    0.093992
    12  H    0.096624
    13  H    0.108169
    14  H    0.093993
    15  H    0.096619
    16  H    0.108167
    17  H    0.096616
    18  H    0.093990
    19  H    0.112099
    20  H    0.107192
    21  H    0.112113
    22  H    0.107163
    23  H    0.112104
    24  H    0.108170
    25  H    0.096629
    26  H    0.093994
    27  H    0.107180
    28  H    0.112092
    29  H    0.107175
 Sum of Mulliken charges =   0.00000

 Dipole moment (field-independent basis, Debye):
    X=              0.0000    Y=              0.0000    Z=              0.0000  Tot=              0.0000
 Quadrupole moment (field-independent basis, Debye-Ang):
   XX=            -63.3313   YY=            -62.6779   ZZ=            -62.6775
   XY=              0.0001   XZ=              0.0001   YZ=              0.0001

 1\1\GINC-MEGATRON\SP\RMP2-FC\CC-pVTZ\C9H20\STYLIANAKIS\14-Feb-2016\0\\
 # mp2/cc-pVTZ\\Et4C_T3_single_point\\0,1\C\C,1,1.536565\C,2,1.557247,1
 ,117.319\C,3,1.557245,2,108.766,1,175.391,0\C,4,1.536564,3,117.319,2,6
 3.65,0\C,3,1.557244,2,110.894,1,55.83,0\C,6,1.536567,3,117.32,2,55.861
 ,0\C,3,1.557241,2,108.764,1,-63.73,0\C,8,1.53657,3,117.32,2,-175.404,0
 \H,1,1.095712,2,109.972,3,179.375,0\H,1,1.095018,2,112.262,3,-61.281,0
 \H,1,1.094589,2,112.258,3,60.187,0\H,7,1.095711,6,109.972,3,179.397,0\
 H,7,1.095018,6,112.262,3,-61.26,0\H,7,1.09459,6,112.259,3,60.208,0\H,9

 Normal termination of Gaussian 09 at Sun Feb 14 02:31:34 2016.
