 Gaussian 09, Revision D.01,
 Gaussian 09:  EM64L-G09RevD.01 24-Apr-2013

 -------------
 # mp2/cc-pVTZ
 -------------

 --------------------
 Et4C_T1_single_point
 --------------------
 Symbolic Z-matrix:
 Charge =  0 Multiplicity = 1

                         Standard orientation:
 ---------------------------------------------------------------------
 Center     Atomic      Atomic             Coordinates (Angstroms)
 Number     Number       Type             X           Y           Z
 ---------------------------------------------------------------------
      1          6           0        1.838017   -1.875297    0.255849
      2          6           0        0.874063   -0.889033    0.930341
      3          6           0       -0.001288   -0.000714    0.000001
      4          6           0       -0.876550    0.887904    0.930166
      5          6           0       -1.832164    1.882157    0.255546
      6          6           0       -0.889796   -0.876188   -0.930050
      7          6           0       -1.879269   -1.836620   -0.255233
      8          6           0        0.887163    0.874410   -0.930461
      9          6           0        1.878884    1.832868   -0.256158
     10          1           0        2.391836   -2.439594    1.014319
     11          1           0        1.312735   -2.603437   -0.371190
     12          1           0        2.575636   -1.366484   -0.374091
     13          1           0       -2.443869   -2.390393   -1.013511
     14          1           0       -1.373053   -2.574349    0.376670
     15          1           0       -2.606983   -1.308505    0.369913
     16          1           0        2.442804    2.386950   -1.014719
     17          1           0        1.374615    2.570397    0.377529
     18          1           0        2.607088    1.303144    0.367057
     19          1           0        1.451485   -0.230907    1.591881
     20          1           0        0.206790   -1.450087    1.597023
     21          1           0       -1.448248   -0.209168   -1.599160
     22          1           0       -1.460505    0.229798    1.585965
     23          1           0       -0.209613    1.442483    1.602572
     24          1           0       -2.385721    2.446845    1.013917
     25          1           0       -1.300229    2.609562   -0.366720
     26          1           0       -2.570191    1.379907   -0.379168
     27          1           0       -0.231729   -1.456422   -1.589181
     28          1           0        0.228997    1.456116   -1.588192
     29          1           0        1.443796    0.207213   -1.600908
 ---------------------------------------------------------------------

 SCF Done:  E(RHF) =  -352.575554917     A.U. after   11 cycles
 E2 =    -0.1609624779D+01 EUMP2 =    -0.35418517969619D+03

 The electronic state is 1-A.
 Alpha  occ. eigenvalues --  -11.22903 -11.21328 -11.21327 -11.21326 -11.21323
 Alpha  occ. eigenvalues --  -11.20997 -11.20997 -11.20997 -11.20997  -1.11348
 Alpha  occ. eigenvalues --   -1.00991  -1.00991  -0.99791  -0.91840  -0.86496
 Alpha  occ. eigenvalues --   -0.81601  -0.81600  -0.70504  -0.64179  -0.64179
 Alpha  occ. eigenvalues --   -0.61947  -0.56062  -0.55943  -0.55941  -0.55489
 Alpha  occ. eigenvalues --   -0.55298  -0.54141  -0.52125  -0.50129  -0.50128
 Alpha  occ. eigenvalues --   -0.48329  -0.48102  -0.48102  -0.46117  -0.42694
 Alpha  occ. eigenvalues --   -0.42693  -0.42059
 Alpha virt. eigenvalues --    0.13353   0.15979   0.15980   0.16477   0.18294
 Alpha virt. eigenvalues --    0.19100   0.19101   0.19836   0.20718   0.22939
 Alpha virt. eigenvalues --    0.23116   0.23118   0.23630   0.25304   0.25304

 Mulliken charges:
               1
     1  C   -0.310699
     2  C   -0.223391
     3  C    0.041790
     4  C   -0.223179
     5  C   -0.310686
     6  C   -0.222862
     7  C   -0.310695
     8  C   -0.223710
     9  C   -0.310686
    10  H    0.108426
    11  H    0.095101
    12  H    0.095011
    13  H    0.108421
    14  H    0.094985
    15  H    0.095009
    16  H    0.108426
    17  H    0.095094
    18  H    0.095086
    19  H    0.112502
    20  H    0.112559
    21  H    0.112408
    22  H    0.112571
    23  H    0.112405
    24  H    0.108422
    25  H    0.095001
    26  H    0.095061
    27  H    0.112443
    28  H    0.112641
    29  H    0.112547
 Sum of Mulliken charges =   0.00000

 Dipole moment (field-independent basis, Debye):
    X=             -0.0006    Y=             -0.0003    Z=              0.0000  Tot=              0.0007
 Quadrupole moment (field-independent basis, Debye-Ang):
   XX=            -63.0797   YY=            -63.0788   ZZ=            -62.5477
   XY=              0.0000   XZ=              0.0007   YZ=              0.0012

 1\1\GINC-MEGATRON\SP\RMP2-FC\CC-pVTZ\C9H20\STYLIANAKIS\14-Feb-2016\0\\
 # mp2/cc-pVTZ\\Et4C_T1_single_point\\0,1\C\C,1,1.535208\C,2,1.555919,1
 ,117.215\C,3,1.555935,2,106.564,1,179.774,0\C,4,1.535203,3,117.215,2,1
 79.281,0\C,3,1.555923,2,110.943,1,58.9,0\C,6,1.535208,3,117.214,2,59.5
 54,0\C,3,1.555939,2,110.943,1,-59.35,0\C,8,1.535199,3,117.216,2,-58.57
 ,0\H,1,1.095639,2,110.128,3,-179.88,0\H,1,1.09512,2,112.181,3,-60.519,
 0\H,1,1.095352,2,112.153,3,60.732,0\H,7,1.095638,6,110.128,3,179.842,0
 \H,7,1.095354,6,112.152,3,-60.769,0\H,7,1.095117,6,112.18,3,60.481,0\H

 Normal termination of Gaussian 09 at Sun Feb 14 02:04:46 2016.
