 Gaussian 09, Revision A.01,
 Gaussian 09:  EM64L-G09RevA.01  8-May-2009

 -----------------------
 # opt b3lyp/6-31+g(d,p)
 -----------------------

 ------------------
 3b-aminotropane-3c
 ------------------
 Symbolic Z-matrix:
 Charge =  0 Multiplicity = 1

 SCF Done:  E(RB3LYP) =  -424.992169038     A.U. after   24 cycles
 SCF Done:  E(RB3LYP) =  -425.005085345     A.U. after   20 cycles
 SCF Done:  E(RB3LYP) =  -425.007811694     A.U. after   20 cycles
 SCF Done:  E(RB3LYP) =  -425.007944418     A.U. after   18 cycles
 SCF Done:  E(RB3LYP) =  -425.007957651     A.U. after   25 cycles
 SCF Done:  E(RB3LYP) =  -425.007958827     A.U. after   15 cycles
 Optimization completed.
    -- Stationary point found.

                         Standard orientation:
 ---------------------------------------------------------------------
 Center     Atomic      Atomic             Coordinates (Angstroms)
 Number     Number       Type             X           Y           Z
 ---------------------------------------------------------------------
      1          7           0       -1.319401    0.700975   -0.000003
      2          6           0       -0.775570   -0.084668   -1.175197
      3          6           0       -0.775576   -0.084652    1.175190
      4          6           0        0.738327    0.118370   -1.290008
      5          6           0        0.738324    0.118391    1.290008
      6          6           0        1.448401   -0.326956    0.000005
      7          6           0       -1.137448    2.187169   -0.000011
      8          7           0        2.891511    0.079293    0.000001
      9          6           0       -1.180034   -1.516478    0.779371
     10          6           0       -1.180033   -1.516486   -0.779356
     11          1           0       -1.289654    0.271464   -2.077743
     12          1           0       -1.289660    0.271484    2.077735
     13          1           0        1.121299   -0.492043   -2.129411
     14          1           0        0.970616    1.155843   -1.538311
     15          1           0        0.970601    1.155872    1.538287
     16          1           0        1.121295   -0.492002    2.129424
     17          1           0        1.490062   -1.420505    0.000014
     18          1           0       -0.077609    2.450153   -0.000182
     19          1           0       -1.633755    2.579147   -0.892479
     20          1           0       -1.633447    2.579132    0.892632
     21          1           0        3.370332   -0.319145    0.850456
     22          1           0        3.370331   -0.319160   -0.850448
     23          1           0       -2.186590   -1.729477    1.161174
     24          1           0       -0.494750   -2.251072    1.210089
     25          1           0       -2.186591   -1.729484   -1.161155
     26          1           0       -0.494751   -2.251087   -1.210066
     27          1           0       -2.380801    0.583749   -0.000012
     28          1           0        2.989962    1.127117   -0.000010
 ---------------------------------------------------------------------

 The electronic state is 1-A.
 Alpha  occ. eigenvalues --  -14.47472 -14.44821 -10.27793 -10.27791 -10.27371
 Alpha  occ. eigenvalues --  -10.26256 -10.22842 -10.22842 -10.22577 -10.22559
 Alpha  occ. eigenvalues --   -1.04176  -0.99616  -0.86137  -0.82088  -0.80838
 Alpha  occ. eigenvalues --   -0.73859  -0.70125  -0.68494  -0.63075  -0.60709
 Alpha  occ. eigenvalues --   -0.59317  -0.56888  -0.56258  -0.54233  -0.52856
 Alpha  occ. eigenvalues --   -0.49616  -0.48011  -0.46397  -0.46181  -0.44925
 Alpha  occ. eigenvalues --   -0.44294  -0.43648  -0.42992  -0.40170  -0.38975
 Alpha  occ. eigenvalues --   -0.38557  -0.36816  -0.36149  -0.36029  -0.07153
 Alpha virt. eigenvalues --   -0.04706  -0.01800  -0.01052  -0.00090   0.00839
 Alpha virt. eigenvalues --    0.00888   0.01627   0.01935   0.02881   0.04087
 Alpha virt. eigenvalues --    0.04543   0.04585   0.05420   0.05974   0.06198

 Mulliken atomic charges:
              1
     1  N   -0.107803
     2  C    1.100332
     3  C    1.100185
     4  C    1.129700
     5  C    1.129843
     6  C   -8.554500
     7  C   -0.682640
     8  N    2.517721
     9  C   -0.563166
    10  C   -0.563099
    11  H    0.160176
    12  H    0.160174
    13  H    0.175293
    14  H    0.180446
    15  H    0.180453
    16  H    0.175292
    17  H    0.195679
    18  H    0.190317
    19  H    0.187139
    20  H    0.187138
    21  H    0.233761
    22  H    0.233761
    23  H    0.171447
    24  H    0.169678
    25  H    0.171447
    26  H    0.169678
    27  H    0.303530
    28  H    0.248015
 Sum of Mulliken atomic charges =   0.00000

 Dipole moment (field-independent basis, Debye):
    X=             -2.9989    Y=              0.4876    Z=              0.0000  Tot=              3.0383
 Quadrupole moment (field-independent basis, Debye-Ang):
   XX=            -96.1586   YY=            -77.1135   ZZ=            -80.6935
   XY=              2.6988   XZ=             -0.0001   YZ=              0.0000

 Normal termination of Gaussian 09 at Mon Aug 29 00:27:05 2016.
