 Gaussian 09, Revision A.01,
 Gaussian 09:  EM64L-G09RevA.01  8-May-2009

 -------------------
 # b3lyp/6-31+g(d,p)
 -------------------

 ------------------------------
 N_Ac_Gly_N_Me_a_a_single_point
 ------------------------------
 Symbolic Z-matrix:
 Charge =  0 Multiplicity = 1

                         Standard orientation:
 ---------------------------------------------------------------------
 Center     Atomic      Atomic             Coordinates (Angstroms)
 Number     Number       Type             X           Y           Z
 ---------------------------------------------------------------------
      1          6           0        3.400891    0.925632   -0.001105
      2          6           0        2.347951   -0.171214   -0.000482
      3          7           0        1.055784    0.260137    0.001201
      4          6           0       -0.053229   -0.662907    0.001935
      5          6           0       -1.359447    0.134316    0.000751
      6          7           0       -2.494637   -0.608618   -0.000386
      7          6           0       -3.815800    0.008376   -0.001489
      8          8           0        2.630433   -1.369464   -0.000744
      9          8           0       -1.371651    1.365232    0.000704
     10          1           0        3.301159    1.563344   -0.886314
     11          1           0        3.302644    1.562976    0.884538
     12          1           0        4.387309    0.461921   -0.002036
     13          1           0       -0.012934   -1.320304   -0.877142
     14          1           0       -0.013733   -1.318269    0.882604
     15          1           0        0.808461    1.243390    0.001392
     16          1           0       -2.422396   -1.615421   -0.000762
     17          1           0       -4.569253   -0.781007   -0.002631
     18          1           0       -3.951805    0.635296    0.884774
     19          1           0       -3.949935    0.636084   -0.887475
 ---------------------------------------------------------------------

 SCF Done:  E(RB3LYP) =  -456.576777993     A.U. after   13 cycles

 The electronic state is 1-A.
 Alpha  occ. eigenvalues --  -19.14453 -19.11966 -14.38937 -14.36535 -10.31231
 Alpha  occ. eigenvalues --  -10.29191 -10.24511 -10.23840 -10.19305  -1.06147
 Alpha  occ. eigenvalues --   -1.03503  -0.94581  -0.92696  -0.77449  -0.73747
 Alpha  occ. eigenvalues --   -0.69374  -0.61063  -0.59260  -0.54472  -0.49354
 Alpha  occ. eigenvalues --   -0.48640  -0.48374  -0.46216  -0.46005  -0.43617
 Alpha  occ. eigenvalues --   -0.42210  -0.41471  -0.39944  -0.39609  -0.38563
 Alpha  occ. eigenvalues --   -0.35559  -0.28486  -0.28353  -0.25941  -0.25462
 Alpha virt. eigenvalues --   -0.01461  -0.00144   0.00790   0.01177   0.01861
 Alpha virt. eigenvalues --    0.03296   0.03369   0.04188   0.05691   0.05700
 Alpha virt. eigenvalues --    0.06088   0.07372   0.08077   0.08981   0.09447

 Mulliken atomic charges:
              1
     1  C   -0.594106
     2  C    0.550829
     3  N   -0.385191
     4  C   -0.374581
     5  C    0.572886
     6  N   -0.377410
     7  C   -0.292947
     8  O   -0.546386
     9  O   -0.558119
    10  H    0.168411
    11  H    0.168414
    12  H    0.183720
    13  H    0.180270
    14  H    0.180251
    15  H    0.338111
    16  H    0.305232
    17  H    0.138164
    18  H    0.171210
    19  H    0.171243
 Sum of Mulliken atomic charges =   0.00000

 Dipole moment (field-independent basis, Debye):
    X=             -3.5212    Y=             -0.1915    Z=             -0.0001  Tot=              3.5264
 Quadrupole moment (field-independent basis, Debye-Ang):
   XX=            -49.0339   YY=            -58.9257   ZZ=            -54.6951
   XY=             16.3455   XZ=              0.0086   YZ=             -0.0032

 Normal termination of Gaussian 09 at Sat Feb 17 21:05:26 2018.
