 Gaussian 09, Revision A.01,
 Gaussian 09:  EM64L-G09RevA.01  8-May-2009

 -------------------
 # b3lyp/6-31+g(d,p)
 -------------------

 ------------------------------
 N_Ac_Ala_N_Me_a_a_single_point
 ------------------------------
 Symbolic Z-matrix:
 Charge =  0 Multiplicity = 1

                         Standard orientation:
 ---------------------------------------------------------------------
 Center     Atomic      Atomic             Coordinates (Angstroms)
 Number     Number       Type             X           Y           Z
 ---------------------------------------------------------------------
      1          6           0       -3.344177   -1.168374    0.032128
      2          6           0       -2.316327   -0.085587   -0.259183
      3          7           0       -1.061497   -0.333297    0.216108
      4          6           0        0.050587    0.571539   -0.012050
      5          6           0        0.066913    1.737401    0.998313
      6          8           0       -2.592066    0.945431   -0.881936
      7          6           0        1.337765   -0.258921    0.085894
      8          7           0        2.427413    0.262801   -0.522737
      9          6           0        3.727800   -0.394298   -0.465971
     10          8           0        1.376929   -1.306626    0.706322
     11          1           0       -3.434277   -1.345057    1.109432
     12          1           0       -3.057575   -2.114588   -0.440053
     13          1           0       -4.308821   -0.849099   -0.362342
     14          1           0       -0.055058    0.986061   -1.021839
     15          1           0       -0.830444   -1.202290    0.684491
     16          1           0        2.325259    1.102954   -1.072134
     17          1           0        4.461277    0.237580   -0.969742
     18          1           0        3.695245   -1.371930   -0.957080
     19          1           0        4.034367   -0.545001    0.572725
     20          1           0       -0.876279    2.283951    0.926178
     21          1           0        0.183401    1.357588    2.018017
     22          1           0        0.887225    2.432306    0.788873
 ---------------------------------------------------------------------

 SCF Done:  E(RB3LYP) =  -495.895831537     A.U. after   14 cycles

 The electronic state is 1-A.
 Alpha  occ. eigenvalues --  -19.14022 -19.11973 -14.38582 -14.36355 -10.30439
 Alpha  occ. eigenvalues --  -10.29302 -10.24702 -10.23633 -10.19333 -10.19273
 Alpha  occ. eigenvalues --   -1.06454  -1.03279  -0.94366  -0.92728  -0.78985
 Alpha  occ. eigenvalues --   -0.73660  -0.72104  -0.65666  -0.60779  -0.58491
 Alpha  occ. eigenvalues --   -0.54701  -0.49278  -0.48019  -0.47290  -0.46509
 Alpha  occ. eigenvalues --   -0.45252  -0.43763  -0.42483  -0.41449  -0.41189
 Alpha  occ. eigenvalues --   -0.39940  -0.38990  -0.38021  -0.37629  -0.35228
 Alpha  occ. eigenvalues --   -0.27995  -0.27968  -0.25804  -0.25477
 Alpha virt. eigenvalues --   -0.01342   0.00057   0.01041   0.01411   0.01681
 Alpha virt. eigenvalues --    0.02671   0.03652   0.04263   0.04897   0.05567
 Alpha virt. eigenvalues --    0.05942   0.06273   0.07610   0.07942   0.08773

 Mulliken atomic charges:
              1
     1  C   -0.549374
     2  C    0.490166
     3  N   -0.311101
     4  C   -0.342139
     5  C   -0.405370
     6  O   -0.526900
     7  C    0.478398
     8  N   -0.317164
     9  C   -0.262604
    10  O   -0.541148
    11  H    0.167840
    12  H    0.170775
    13  H    0.183691
    14  H    0.165027
    15  H    0.332553
    16  H    0.301931
    17  H    0.138648
    18  H    0.168851
    19  H    0.172218
    20  H    0.185679
    21  H    0.157910
    22  H    0.142113
 Sum of Mulliken atomic charges =   0.00000

 Dipole moment (field-independent basis, Debye):
    X=              3.1885    Y=              0.1606    Z=             -0.1344  Tot=              3.1954
 Quadrupole moment (field-independent basis, Debye-Ang):
   XX=            -56.4719   YY=            -63.4700   ZZ=            -62.7394
   XY=             12.2848   XZ=             -9.6621   YZ=              2.6091

 Normal termination of Gaussian 09 at Sat Feb 17 21:10:25 2018.
