 Gaussian 09, Revision A.01,
 Gaussian 09:  EM64L-G09RevA.01  8-May-2009

 -------------------
 # b3lyp/6-31+g(d,p)
 -------------------

 ------------------------------------
 N_Ac_Ala_N_Me_g_plus_g__single_point
 ------------------------------------
 Symbolic Z-matrix:
 Charge =  0 Multiplicity = 1

                         Standard orientation:
 ---------------------------------------------------------------------
 Center     Atomic      Atomic             Coordinates (Angstroms)
 Number     Number       Type             X           Y           Z
 ---------------------------------------------------------------------
      1          6           0       -3.119645   -0.623058    0.745662
      2          6           0       -1.857216   -0.405975   -0.065653
      3          7           0       -1.106108    0.682017    0.258145
      4          6           0        0.117288    1.056439   -0.463755
      5          6           0        0.352898    2.559099   -0.357287
      6          8           0       -1.534790   -1.176294   -0.977127
      7          6           0        1.328206    0.251270    0.076206
      8          7           0        1.359206   -1.042407   -0.331908
      9          6           0        2.367052   -1.973762    0.151895
     10          8           0        2.177020    0.759041    0.808058
     11          1           0       -3.975605   -0.617047    0.064841
     12          1           0       -3.276927    0.129823    1.522847
     13          1           0       -3.075046   -1.612900    1.208278
     14          1           0       -0.047912    0.770880   -1.507739
     15          1           0       -1.365133    1.238675    1.060729
     16          1           0        0.539025   -1.396617   -0.817382
     17          1           0        2.152690   -2.316590    1.171990
     18          1           0        3.342627   -1.483399    0.158067
     19          1           0        2.399983   -2.838126   -0.514756
     20          1           0        0.534552    2.854432    0.680334
     21          1           0       -0.509074    3.106066   -0.751329
     22          1           0        1.239787    2.841478   -0.929398
 ---------------------------------------------------------------------

 SCF Done:  E(RB3LYP) =  -495.898556893     A.U. after   13 cycles

 The electronic state is 1-A.
 Alpha  occ. eigenvalues --  -19.13844 -19.12283 -14.38744 -14.36185 -10.31159
 Alpha  occ. eigenvalues --  -10.28862 -10.24757 -10.21861 -10.20963 -10.19298
 Alpha  occ. eigenvalues --   -1.05520  -1.03646  -0.94493  -0.92053  -0.79408
 Alpha  occ. eigenvalues --   -0.74407  -0.71664  -0.64792  -0.61027  -0.57961
 Alpha  occ. eigenvalues --   -0.53993  -0.50410  -0.49754  -0.46873  -0.45982
 Alpha  occ. eigenvalues --   -0.44707  -0.42885  -0.42694  -0.42029  -0.40165
 Alpha  occ. eigenvalues --   -0.39486  -0.38623  -0.38052  -0.37234  -0.36531
 Alpha  occ. eigenvalues --   -0.29343  -0.27624  -0.25874  -0.24942
 Alpha virt. eigenvalues --   -0.00981  -0.00316   0.01208   0.01533   0.01745
 Alpha virt. eigenvalues --    0.02428   0.03708   0.04171   0.04607   0.05336
 Alpha virt. eigenvalues --    0.06061   0.07033   0.07355   0.07753   0.08447

 Mulliken atomic charges:
              1
     1  C   -0.528588
     2  C    0.532650
     3  N   -0.352714
     4  C    0.134936
     5  C   -0.597958
     6  O   -0.538352
     7  C    0.173234
     8  N   -0.300102
     9  C   -0.286480
    10  O   -0.537257
    11  H    0.187666
    12  H    0.140322
    13  H    0.186782
    14  H    0.178720
    15  H    0.303490
    16  H    0.345090
    17  H    0.150341
    18  H    0.174730
    19  H    0.141296
    20  H    0.170905
    21  H    0.151518
    22  H    0.169771
 Sum of Mulliken atomic charges =   0.00000

 Dipole moment (field-independent basis, Debye):
    X=             -2.6846    Y=              0.3453    Z=              0.6976  Tot=              2.7952
 Quadrupole moment (field-independent basis, Debye-Ang):
   XX=            -62.3985   YY=            -58.5644   ZZ=            -63.1719
   XY=             -8.3224   XZ=             -9.2602   YZ=             -3.6050

 Normal termination of Gaussian 09 at Sat Feb 17 21:07:00 2018.
