 Gaussian 09, Revision A.01,
 Gaussian 09:  EM64L-G09RevA.01  8-May-2009

 -------------------
 # b3lyp/6-31+g(d,p)
 -------------------

 ------------------------------------
 N_Ac_Gly_N_Me_g_plus_g-_single_point
 ------------------------------------
 Symbolic Z-matrix:
 Charge =  0 Multiplicity = 1

                         Standard orientation:
 ---------------------------------------------------------------------
 Center     Atomic      Atomic             Coordinates (Angstroms)
 Number     Number       Type             X           Y           Z
 ---------------------------------------------------------------------
      1          6           0        3.103145    0.343100    0.735382
      2          6           0        1.829778    0.191988   -0.072781
      3          7           0        1.130230   -0.962893    0.102463
      4          6           0       -0.085425   -1.269275   -0.648836
      5          6           0       -1.355331   -0.619982   -0.065996
      6          7           0       -1.417201    0.727348   -0.200335
      7          6           0       -2.525433    1.500265    0.339815
      8          8           0        1.450092    1.069165   -0.855614
      9          8           0       -2.235378   -1.299132    0.462714
     10          1           0        3.941323    0.463668    0.043120
     11          1           0        3.306529   -0.503648    1.396570
     12          1           0        3.035875    1.257100    1.331767
     13          1           0       -0.240786   -2.348074   -0.631610
     14          1           0        0.063605   -0.941617   -1.682511
     15          1           0        1.430933   -1.618002    0.808765
     16          1           0       -0.604212    1.199236   -0.586632
     17          1           0       -2.485415    1.557589    1.434239
     18          1           0       -3.474276    1.035328    0.061252
     19          1           0       -2.482898    2.510395   -0.072154
 ---------------------------------------------------------------------

 SCF Done:  E(RB3LYP) =  -456.578189474     A.U. after   13 cycles

 The electronic state is 1-A.
 Alpha  occ. eigenvalues --  -19.14171 -19.12319 -14.39268 -14.36300 -10.31461
 Alpha  occ. eigenvalues --  -10.29078 -10.24352 -10.21965 -10.21209  -1.05858
 Alpha  occ. eigenvalues --   -1.03651  -0.94657  -0.92136  -0.78000  -0.73469
 Alpha  occ. eigenvalues --   -0.69393  -0.61221  -0.58178  -0.54129  -0.51847
 Alpha  occ. eigenvalues --   -0.49484  -0.46881  -0.45993  -0.44809  -0.42531
 Alpha  occ. eigenvalues --   -0.42278  -0.41502  -0.40992  -0.39196  -0.38011
 Alpha  occ. eigenvalues --   -0.36989  -0.29595  -0.27966  -0.25878  -0.25118
 Alpha virt. eigenvalues --   -0.01469  -0.00561   0.01120   0.01486   0.01859
 Alpha virt. eigenvalues --    0.02553   0.04026   0.04733   0.05032   0.05708
 Alpha virt. eigenvalues --    0.06330   0.06841   0.08068   0.09017   0.09623

 Mulliken atomic charges:
              1
     1  C   -0.486936
     2  C    0.401183
     3  N   -0.373335
     4  C   -0.165407
     5  C    0.341513
     6  N   -0.338432
     7  C   -0.292577
     8  O   -0.543914
     9  O   -0.539258
    10  H    0.188929
    11  H    0.139637
    12  H    0.187815
    13  H    0.168601
    14  H    0.187491
    15  H    0.308830
    16  H    0.348366
    17  H    0.153295
    18  H    0.173113
    19  H    0.141087
 Sum of Mulliken atomic charges =   0.00000

 Dipole moment (field-independent basis, Debye):
    X=              3.1469    Y=              0.0314    Z=              0.9620  Tot=              3.2908
 Quadrupole moment (field-independent basis, Debye-Ang):
   XX=            -55.3630   YY=            -54.5276   ZZ=            -55.2622
   XY=            -11.6445   XZ=              6.8909   YZ=              3.5262

 Normal termination of Gaussian 09 at Sat Feb 17 21:04:16 2018.
