 Gaussian 09, Revision A.01,
 Gaussian 09:  EM64L-G09RevA.01  8-May-2009

 -------------------
 # b3lyp/6-31+g(d,p)
 -------------------

 --------------------------------
 N_Ac_Ala_N_Me_g_g_+_single_point
 --------------------------------
 Symbolic Z-matrix:
 Charge =  0 Multiplicity = 1

                         Standard orientation:
 ---------------------------------------------------------------------
 Center     Atomic      Atomic             Coordinates (Angstroms)
 Number     Number       Type             X           Y           Z
 ---------------------------------------------------------------------
      1          6           0       -3.163528   -0.750978   -0.617651
      2          6           0       -1.829018   -0.367278   -0.004687
      3          7           0       -1.141833    0.623433   -0.635312
      4          6           0        0.119470    1.250742   -0.192856
      5          6           0        0.021621    1.848318    1.220468
      6          8           0       -1.409448   -0.935835    1.010157
      7          6           0        1.373983    0.358147   -0.357579
      8          7           0        1.339897   -0.858470    0.230557
      9          6           0        2.479015   -1.761687    0.165745
     10          8           0        2.352336    0.790426   -0.970531
     11          1           0       -3.394894   -0.219398   -1.544729
     12          1           0       -3.951405   -0.547339    0.113586
     13          1           0       -3.164381   -1.827170   -0.809667
     14          1           0        0.294411    2.063525   -0.900378
     15          1           0       -1.535598    0.981182   -1.492909
     16          1           0        0.493068   -1.128474    0.726497
     17          1           0        2.206051   -2.700794    0.650677
     18          1           0        3.350965   -1.334818    0.672703
     19          1           0        2.759671   -1.959889   -0.873412
     20          1           0       -0.786778    2.585427    1.259520
     21          1           0       -0.171143    1.079178    1.970161
     22          1           0        0.961225    2.353511    1.463580
 ---------------------------------------------------------------------

 SCF Done:  E(RB3LYP) =  -495.894561652     A.U. after   13 cycles

 The electronic state is 1-A.
 Alpha  occ. eigenvalues --  -19.14126 -19.11872 -14.39048 -14.35790 -10.31523
 Alpha  occ. eigenvalues --  -10.28651 -10.25098 -10.21678 -10.21146 -10.19195
 Alpha  occ. eigenvalues --   -1.05766  -1.03296  -0.94644  -0.91717  -0.79488
 Alpha  occ. eigenvalues --   -0.74593  -0.70913  -0.66188  -0.60389  -0.57490
 Alpha  occ. eigenvalues --   -0.54390  -0.51837  -0.48007  -0.46762  -0.45179
 Alpha  occ. eigenvalues --   -0.44865  -0.43254  -0.42543  -0.42104  -0.41464
 Alpha  occ. eigenvalues --   -0.39606  -0.38817  -0.37867  -0.36900  -0.35899
 Alpha  occ. eigenvalues --   -0.29341  -0.27801  -0.25461  -0.24806
 Alpha virt. eigenvalues --   -0.01468  -0.00927   0.01247   0.01371   0.01849
 Alpha virt. eigenvalues --    0.02730   0.04078   0.04444   0.04824   0.05181
 Alpha virt. eigenvalues --    0.05764   0.06534   0.07237   0.07993   0.08421

 Mulliken atomic charges:
              1
     1  C   -0.576711
     2  C    0.434905
     3  N   -0.385264
     4  C    0.208728
     5  C   -0.486644
     6  O   -0.524696
     7  C    0.170360
     8  N   -0.329987
     9  C   -0.274170
    10  O   -0.522554
    11  H    0.138795
    12  H    0.187638
    13  H    0.187976
    14  H    0.153925
    15  H    0.307667
    16  H    0.355927
    17  H    0.138527
    18  H    0.160474
    19  H    0.162266
    20  H    0.147823
    21  H    0.184184
    22  H    0.160831
 Sum of Mulliken atomic charges =   0.00000

 Dipole moment (field-independent basis, Debye):
    X=             -3.6273    Y=              0.0070    Z=             -0.7897  Tot=              3.7123
 Quadrupole moment (field-independent basis, Debye-Ang):
   XX=            -63.0119   YY=            -58.3868   ZZ=            -63.1375
   XY=             -7.7530   XZ=             10.7555   YZ=              2.2714

 Normal termination of Gaussian 09 at Sat Feb 17 21:08:48 2018.
