 Gaussian 09, Revision A.01,
 Gaussian 09:  EM64L-G09RevA.01  8-May-2009

 -------------------
 # b3lyp/6-31+g(d,p)
 -------------------

 -------------------------------
 N_Me_ethylamine_g-_single_point
 -------------------------------
 Symbolic Z-matrix:
 Charge =  0 Multiplicity = 1

                         Standard orientation:
 ---------------------------------------------------------------------
 Center     Atomic      Atomic             Coordinates (Angstroms)
 Number     Number       Type             X           Y           Z
 ---------------------------------------------------------------------
      1          6           0       -1.583102   -0.520203   -0.117853
      2          6           0       -0.635875    0.611866    0.285772
      3          7           0        0.658548    0.529821   -0.396425
      4          6           0        1.549115   -0.510359    0.111547
      5          1           0       -0.521772    0.614551    1.387914
      6          1           0       -1.089408    1.571098    0.010709
      7          1           0       -2.556761   -0.393767    0.368504
      8          1           0       -1.731743   -0.525146   -1.202416
      9          1           0        1.125476    1.429617   -0.340914
     10          1           0       -1.195199   -1.501069    0.176485
     11          1           0        2.524776   -0.421460   -0.375541
     12          1           0        1.701837   -0.469975    1.206628
     13          1           0        1.152126   -1.500417   -0.133188
 ---------------------------------------------------------------------

 SCF Done:  E(RB3LYP) =  -174.500098780     A.U. after   11 cycles

 The electronic state is 1-A.
 Alpha  occ. eigenvalues --  -14.32418 -10.21039 -10.20386 -10.17465  -0.90089
 Alpha  occ. eigenvalues --   -0.74357  -0.67080  -0.58963  -0.49687  -0.45902
 Alpha  occ. eigenvalues --   -0.43432  -0.40394  -0.39101  -0.36402  -0.35474
 Alpha  occ. eigenvalues --   -0.33769  -0.22488
 Alpha virt. eigenvalues --    0.00480   0.02262   0.02969   0.03718   0.05725
 Alpha virt. eigenvalues --    0.06792   0.07133   0.07880   0.08377   0.10290
 Alpha virt. eigenvalues --    0.10697   0.13565   0.15785   0.16455   0.18686

 Mulliken atomic charges:
              1
     1  C   -0.432581
     2  C   -0.190903
     3  N   -0.371626
     4  C   -0.364629
     5  H    0.117126
     6  H    0.127649
     7  H    0.141256
     8  H    0.160690
     9  H    0.276482
    10  H    0.139269
    11  H    0.137426
    12  H    0.118902
    13  H    0.140940
 Sum of Mulliken atomic charges =   0.00000

 Dipole moment (field-independent basis, Debye):
    X=              0.2857    Y=              0.4121    Z=              0.9150  Tot=              1.0434
 Quadrupole moment (field-independent basis, Debye-Ang):
   XX=            -26.3431   YY=            -26.0936   ZZ=            -30.5087
   XY=              0.3374   XZ=              0.2530   YZ=              0.2573

 1\1\GINC-ROCK\SP\RB3LYP\6-31+G(d,p)\C3H9N1\STYLIANAKIS\17-Feb-2018\0\\
 # b3lyp/6-31+g(d,p)\\N_Me_ethylamine_g-_single_point\\0,1\C\C,1,1.5302
 72\N,2,1.465489,1,112.491\C,3,1.46052,2,114.617,1,-75.025,0\H,2,1.1080
 36,3,111.852,4,48.232,0\H,2,1.096119,3,107.316,4,165.131,0\H,1,1.09569
 2,2,110.341,3,-176.85,0\H,1,1.094712,2,110.408,3,-56.741,0\H,3,1.01525
 2,2,109.339,1,161.776,0\H,1,1.095081,2,111.868,3,63.665,0\H,4,1.094108
 ,3,109.332,2,-173.563,0\H,4,1.106416,3,113.729,2,-52.34,0\H,4,1.0944,3
 ,110.202,2,68.73,0\\Version=EM64L-G09RevA.01\State=1-A\HF=-174.5000988

 Normal termination of Gaussian 09 at Sat Feb 17 21:03:01 2018.
