 Gaussian 09, Revision A.01,
 Gaussian 09:  EM64L-G09RevA.01  8-May-2009

 -------------------
 # b3lyp/6-31+g(d,p)
 -------------------

 -------------------------------
 N_Me_ethylamine_g+_single_point
 -------------------------------
 Symbolic Z-matrix:
 Charge =  0 Multiplicity = 1

                         Standard orientation:
 ---------------------------------------------------------------------
 Center     Atomic      Atomic             Coordinates (Angstroms)
 Number     Number       Type             X           Y           Z
 ---------------------------------------------------------------------
      1          6           0       -1.566751    0.543515   -0.117721
      2          6           0       -0.645643   -0.616477    0.297838
      3          7           0        0.700714   -0.628241   -0.275513
      4          6           0        1.561523    0.484405    0.114715
      5          1           0       -1.122192   -1.567885    0.031134
      6          1           0       -0.534490   -0.623007    1.390378
      7          1           0       -2.552728    0.437032    0.349969
      8          1           0       -1.162817    1.516482    0.180972
      9          1           0        0.650083   -0.698498   -1.288380
     10          1           0       -1.712998    0.558534   -1.204824
     11          1           0        2.548572    0.351697   -0.339299
     12          1           0        1.191970    1.486541   -0.163183
     13          1           0        1.694821    0.468133    1.202830
 ---------------------------------------------------------------------

 SCF Done:  E(RB3LYP) =  -174.499387458     A.U. after   11 cycles

 The electronic state is 1-A.
 Alpha  occ. eigenvalues --  -14.32201 -10.20947 -10.20313 -10.17804  -0.89887
 Alpha  occ. eigenvalues --   -0.74296  -0.66927  -0.60101  -0.49039  -0.45322
 Alpha  occ. eigenvalues --   -0.43254  -0.40538  -0.39103  -0.37574  -0.35357
 Alpha  occ. eigenvalues --   -0.34119  -0.21997
 Alpha virt. eigenvalues --    0.00739   0.02634   0.02984   0.03022   0.05911
 Alpha virt. eigenvalues --    0.06740   0.06932   0.07672   0.08536   0.10446
 Alpha virt. eigenvalues --    0.10737   0.13769   0.14845   0.16858   0.18558

 Mulliken atomic charges:
              1
     1  C   -0.447043
     2  C   -0.175191
     3  N   -0.386252
     4  C   -0.363120
     5  H    0.135803
     6  H    0.134608
     7  H    0.143561
     8  H    0.144607
     9  H    0.275234
    10  H    0.142000
    11  H    0.138595
    12  H    0.118326
    13  H    0.138872
 Sum of Mulliken atomic charges =   0.00000

 Dipole moment (field-independent basis, Debye):
    X=             -0.5008    Y=              0.8275    Z=             -0.4597  Tot=              1.0709
 Quadrupole moment (field-independent basis, Debye-Ang):
   XX=            -28.0142   YY=            -30.1820   ZZ=            -26.0710
   XY=              2.1384   XZ=             -0.5677   YZ=              0.7345

 1\1\GINC-ROCK\SP\RB3LYP\6-31+G(d,p)\C3H9N1\STYLIANAKIS\17-Feb-2018\0\\
 # b3lyp/6-31+g(d,p)\\N_Me_ethylamine_g+_single_point\\0,1\C\C,1,1.5384
 12\N,2,1.463403,1,116.813\C,3,1.45988,2,115.571,1,64.694,0\H,2,1.09699
 9,3,107.304,4,-172.445,0\H,2,1.098199,3,107.254,4,-58.579,0\H,1,1.0964
 6,2,110.485,3,178.583,0\H,1,1.095009,2,112.051,3,-61.499,0\H,3,1.01656
 2,2,110.188,1,-61.28,0\H,1,1.096999,2,110.967,3,59.186,0\H,4,1.094535,
 3,109.175,2,177.824,0\H,4,1.103663,3,115.296,2,-60.537,0\H,4,1.09637,3
 ,109.006,2,60.696,0\\Version=EM64L-G09RevA.01\State=1-A\HF=-174.499387

 Normal termination of Gaussian 09 at Sat Feb 17 21:02:46 2018.
