 Gaussian 09, Revision A.01,
 Gaussian 09:  EM64L-G09RevA.01  8-May-2009

 -------------------
 # b3lyp/6-31+g(d,p)
 -------------------

 ------------------------------
 N_Me_ethylamine_a_single_point
 ------------------------------
 Symbolic Z-matrix:
 Charge =  0 Multiplicity = 1

                         Standard orientation:
 ---------------------------------------------------------------------
 Center     Atomic      Atomic             Coordinates (Angstroms)
 Number     Number       Type             X           Y           Z
 ---------------------------------------------------------------------
      1          6           0        1.905669   -0.143420   -0.029364
      2          6           0        0.524832    0.503657    0.051619
      3          7           0       -0.537405   -0.487146   -0.110996
      4          6           0       -1.880861    0.072709   -0.007420
      5          1           0        0.414591    1.241419   -0.754156
      6          1           0        0.431860    1.064828    1.002637
      7          1           0        2.694133    0.610455    0.066349
      8          1           0        2.048038   -0.874397    0.776360
      9          1           0       -0.418555   -1.228454    0.575399
     10          1           0        2.032895   -0.663356   -0.983970
     11          1           0       -2.620559   -0.730334   -0.079950
     12          1           0       -2.064804    0.632216    0.928868
     13          1           0       -2.053608    0.759974   -0.843574
 ---------------------------------------------------------------------

 SCF Done:  E(RB3LYP) =  -174.501628191     A.U. after   11 cycles

 The electronic state is 1-A.
 Alpha  occ. eigenvalues --  -14.32371 -10.20989 -10.20408 -10.17879  -0.90218
 Alpha  occ. eigenvalues --   -0.74792  -0.65937  -0.60635  -0.48417  -0.45411
 Alpha  occ. eigenvalues --   -0.44537  -0.41378  -0.38423  -0.36102  -0.35315
 Alpha  occ. eigenvalues --   -0.34710  -0.22449
 Alpha virt. eigenvalues --    0.00935   0.02308   0.02888   0.04061   0.04752
 Alpha virt. eigenvalues --    0.06683   0.07342   0.08202   0.08542   0.09894
 Alpha virt. eigenvalues --    0.11972   0.13822   0.14836   0.17878   0.18897

 Mulliken atomic charges:
              1
     1  C   -0.553388
     2  C   -0.138236
     3  N   -0.360954
     4  C   -0.304896
     5  H    0.131817
     6  H    0.113626
     7  H    0.143635
     8  H    0.138516
     9  H    0.271029
    10  H    0.165348
    11  H    0.137115
    12  H    0.117412
    13  H    0.138977
 Sum of Mulliken atomic charges =   0.00000

 Dipole moment (field-independent basis, Debye):
    X=             -0.0352    Y=              0.2738    Z=              0.9835  Tot=              1.0216
 Quadrupole moment (field-independent basis, Debye-Ang):
   XX=            -26.8927   YY=            -27.8100   ZZ=            -28.6344
   XY=              0.3277   XZ=             -0.3124   YZ=             -2.1785

 1\1\GINC-ROCK\SP\RB3LYP\6-31+G(d,p)\C3H9N1\STYLIANAKIS\17-Feb-2018\0\\
 # b3lyp/6-31+g(d,p)\\N_Me_ethylamine_a_single_point\\0,1\C\C,1,1.52708
 2\N,2,1.461671,1,111.346\C,3,1.459123,2,113.649,1,178.503,0\H,2,1.0980
 52,3,107.508,4,-61.352,0\H,2,1.108147,3,112.196,4,55.203,0\H,1,1.09506
 3,2,110.776,3,178.463,0\H,1,1.097172,2,111.143,3,-62.069,0\H,3,1.01725
 1,2,109.512,1,55.264,0\H,1,1.094437,2,110.651,3,57.914,0\H,4,1.094208,
 3,109.641,2,-176.71,0\H,4,1.106128,3,114.034,2,-55.024,0\H,4,1.096051,
 3,109.363,2,65.482,0\\Version=EM64L-G09RevA.01\State=1-A\HF=-174.50162

 Normal termination of Gaussian 09 at Sat Feb 17 21:03:14 2018.
