 Gaussian 09, Revision A.01,
 Gaussian 09:  EM64L-G09RevA.01  8-May-2009

 ------------
 # mp2/dgdzvp
 ------------

 -----------------------------
 2-SnBu3-N-Me-piperidine-ax,ax
 -----------------------------
 Symbolic Z-matrix:
 Charge =  0 Multiplicity = 1

                         Standard orientation:
 ---------------------------------------------------------------------
 Center     Atomic      Atomic             Coordinates (Angstroms)
 Number     Number       Type             X           Y           Z
 ---------------------------------------------------------------------
      1          6           0        2.374961    0.058790   -0.999206
      2          7           0        3.129637    1.062969   -0.222766
      3          6           0        3.605275    0.532033    1.062095
      4          6           0        3.111422   -1.290327   -1.154366
      5          6           0        4.394517   -0.788967    0.960524
      6          6           0        3.577126   -1.846044    0.200903
      7          6           0        4.177417    1.737550   -0.993060
      8          1           0        2.228401    0.483528   -2.001039
      9          1           0        2.731320    0.368601    1.706591
     10          1           0        4.211148    1.304507    1.549522
     11          1           0        3.994867   -1.157596   -1.798048
     12          1           0        2.467209   -2.015850   -1.667090
     13          1           0        4.647150   -1.142579    1.968332
     14          1           0        5.346220   -0.616622    0.440640
     15          1           0        2.703258   -2.131522    0.803913
     16          1           0        4.166571   -2.759680    0.057095
     17         50           0        0.256395   -0.034873   -0.293812
     18          6           0       -0.017687   -0.513402    1.843758
     19          6           0       -1.439244   -0.948049    2.242954
     20          6           0       -1.582821   -1.261415    3.742607
     21          6           0       -2.998148   -1.704462    4.137788
     22          6           0       -0.782789   -1.542187   -1.528013
     23          6           0       -2.300940   -1.346861   -1.690452
     24          6           0       -2.964925   -2.414595   -2.577134
     25          6           0       -4.478156   -2.216362   -2.739404
     26          6           0       -0.505456    1.981954   -0.730781
     27          6           0       -1.779229    2.430214    0.006036
     28          6           0       -2.198569    3.872789   -0.325642
     29          6           0       -3.468298    4.324018    0.409125
     30          1           0        4.986709    1.081574   -1.359888
     31          1           0        3.726549    2.226725   -1.863379
     32          1           0        4.635670    2.519048   -0.376387
     33          1           0        0.697432   -1.303255    2.104945
     34          1           0        0.279710    0.373723    2.417837
     35          1           0       -2.163990   -0.166775    1.976489
     36          1           0       -1.732613   -1.837590    1.668628
     37          1           0       -0.863204   -2.044867    4.016325
     38          1           0       -1.301085   -0.372971    4.323666
     39          1           0       -3.066115   -1.917277    5.210606
     40          1           0       -3.736640   -0.927676    3.905956
     41          1           0       -3.294867   -2.612822    3.599816
     42          1           0       -0.300810   -1.534859   -2.514995
     43          1           0       -0.574800   -2.530254   -1.096288
     44          1           0       -2.789388   -1.352746   -0.706445
     45          1           0       -2.506664   -0.356280   -2.119532
     46          1           0       -2.486211   -2.408049   -3.565810
     47          1           0       -2.768936   -3.407958   -2.151228
     48          1           0       -4.917261   -2.991131   -3.378036
     49          1           0       -4.990273   -2.255528   -1.770514
     50          1           0       -4.705217   -1.244210   -3.193282
     51          1           0        0.323290    2.663228   -0.498659
     52          1           0       -0.658486    2.043789   -1.816701
     53          1           0       -2.613987    1.757300   -0.234535
     54          1           0       -1.631809    2.348383    1.091963
     55          1           0       -1.371127    4.551726   -0.079274
     56          1           0       -2.351617    3.961396   -1.409792
     57          1           0       -3.736910    5.354254    0.149305
     58          1           0       -4.322580    3.684599    0.156021
     59          1           0       -3.334844    4.280503    1.496822
 ---------------------------------------------------------------------

 SCF Done:  E(RHF) =  -6780.85112324     A.U. after   13 cycles
 E2 =    -0.2626291573D+01 EUMP2 =    -0.67834774148127D+04

 The electronic state is 1-A.
 Alpha  occ. eigenvalues -- **********-156.93449-146.51457-146.51451-146.51446
 Alpha  occ. eigenvalues --  -31.56734 -27.19648 -27.19626 -27.19609 -19.15908
 Alpha  occ. eigenvalues --  -19.15900 -19.15881 -19.15878 -19.15853 -15.53602
 Alpha  occ. eigenvalues --  -11.24409 -11.23970 -11.23755 -11.21941 -11.21827
 Alpha  occ. eigenvalues --  -11.21785 -11.21701 -11.21558 -11.21531 -11.21484
 Alpha  occ. eigenvalues --  -11.21387 -11.21133 -11.20771 -11.20745 -11.20705
 Alpha  occ. eigenvalues --  -11.20534 -11.20499 -11.19977  -5.49415  -3.95630
 Alpha  occ. eigenvalues --   -3.95608  -3.95599  -1.35712  -1.35687  -1.35635
 Alpha  occ. eigenvalues --   -1.35163  -1.35120  -1.22056  -1.06765  -1.06494
 Alpha  occ. eigenvalues --   -1.06468  -1.06241  -1.00614  -0.97562  -0.96868
 Alpha  occ. eigenvalues --   -0.96615  -0.93432  -0.85573  -0.84727  -0.84599
 Alpha  occ. eigenvalues --   -0.84140  -0.83493  -0.79103  -0.78635  -0.78399
 Alpha  occ. eigenvalues --   -0.73737  -0.65978  -0.64112  -0.63877  -0.63442
 Alpha  occ. eigenvalues --   -0.62410  -0.61894  -0.60594  -0.58717  -0.58162
 Alpha  occ. eigenvalues --   -0.57972  -0.57440  -0.57334  -0.57155  -0.56943
 Alpha  occ. eigenvalues --   -0.56402  -0.56103  -0.54139  -0.53962  -0.53145
 Alpha  occ. eigenvalues --   -0.51749  -0.51405  -0.50256  -0.49891  -0.49740
 Alpha  occ. eigenvalues --   -0.49478  -0.49047  -0.48848  -0.48669  -0.47601
 Alpha  occ. eigenvalues --   -0.47432  -0.46950  -0.46826  -0.46531  -0.46349
 Alpha  occ. eigenvalues --   -0.46137  -0.45882  -0.44837  -0.37819  -0.36019
 Alpha  occ. eigenvalues --   -0.35760  -0.31828
 Alpha virt. eigenvalues --    0.13260   0.14156   0.15828   0.17544   0.20483
 Alpha virt. eigenvalues --    0.21829   0.21891   0.22571   0.22991   0.23798
 Alpha virt. eigenvalues --    0.24532   0.24602   0.25177   0.25568   0.25933

 Mulliken atomic charges:
              1
     1  C   -0.435467
     2  N   -0.487184
     3  C   -0.295797
     4  C   -0.395191
     5  C   -0.408058
     6  C   -0.418354
     7  C   -0.434944
     8  H    0.273668
     9  H    0.208298
    10  H    0.250561
    11  H    0.205642
    12  H    0.235490
    13  H    0.235307
    14  H    0.186683
    15  H    0.172970
    16  H    0.243990
    17  Sn   1.114416
    18  C   -0.780343
    19  C   -0.326240
    20  C   -0.339972
    21  C   -0.573170
    22  C   -0.770605
    23  C   -0.322687
    24  C   -0.337748
    25  C   -0.571992
    26  C   -0.772491
    27  C   -0.320554
    28  C   -0.339075
    29  C   -0.572366
    30  H    0.162514
    31  H    0.207056
    32  H    0.203480
    33  H    0.220601
    34  H    0.222915
    35  H    0.187627
    36  H    0.185437
    37  H    0.180625
    38  H    0.182388
    39  H    0.203159
    40  H    0.178430
    41  H    0.177106
    42  H    0.215972
    43  H    0.216592
    44  H    0.185709
    45  H    0.186044
    46  H    0.181060
    47  H    0.181192
    48  H    0.202393
    49  H    0.177844
    50  H    0.177423
    51  H    0.241147
    52  H    0.213821
    53  H    0.183400
    54  H    0.181952
    55  H    0.183081
    56  H    0.180347
    57  H    0.201954
    58  H    0.177167
    59  H    0.176778
 Sum of Mulliken atomic charges =   0.00000

 Dipole moment (field-independent basis, Debye):
    X=              0.9952    Y=             -0.5540    Z=             -0.1059  Tot=              1.1439
 Quadrupole moment (field-independent basis, Debye-Ang):
   XX=           -157.9512   YY=           -160.3410   ZZ=           -157.3878
   XY=             -0.0377   XZ=              0.3533   YZ=             -0.5379

 Normal termination of Gaussian 09 at Sun Oct 23 15:28:16 2016.
