 Gaussian 09, Revision A.01,
 Gaussian 09:  EM64L-G09RevA.01  8-May-2009

 ------------
 # mp2/dgdzvp
 ------------

 -----------------------------
 2-SnBu3-N-Me-piperidine-eq,eq
 -----------------------------
 Symbolic Z-matrix:
 Charge =  0 Multiplicity = 1

                         Standard orientation:
 ---------------------------------------------------------------------
 Center     Atomic      Atomic             Coordinates (Angstroms)
 Number     Number       Type             X           Y           Z
 ---------------------------------------------------------------------
      1          6           0       -2.419352    0.311665    0.527209
      2          7           0       -3.201286   -0.884166    0.155795
      3          6           0       -4.642212   -0.692946    0.393837
      4          6           0       -2.927398    1.548828   -0.236485
      5          6           0       -5.202176    0.495099   -0.390512
      6          6           0       -4.434898    1.774919   -0.045216
      7          6           0       -2.747197   -2.087647    0.842804
      8          1           0       -2.533127    0.511926    1.615032
      9          1           0       -4.845709   -0.544663    1.475077
     10          1           0       -5.160168   -1.611983    0.094694
     11          1           0       -2.721500    1.428650   -1.309051
     12          1           0       -2.373998    2.434099    0.097308
     13          1           0       -6.270515    0.605234   -0.167672
     14          1           0       -5.112608    0.286794   -1.464189
     15          1           0       -4.632379    2.049408    1.000580
     16          1           0       -4.777582    2.614037   -0.663489
     17         50           0       -0.228207    0.075143    0.157155
     18          6           0        0.080481   -0.973750   -1.753985
     19          6           0        1.435678   -1.686022   -1.908410
     20          6           0        1.599003   -2.405105   -3.258676
     21          6           0        2.951572   -3.114342   -3.410117
     22          6           0        0.728825   -1.008330    1.826379
     23          6           0        2.204723   -0.663159    2.088840
     24          6           0        2.800543   -1.408658    3.295559
     25          6           0        4.271503   -1.060638    3.561300
     26          6           0        0.638268    2.101244    0.034672
     27          6           0        2.024990    2.185969   -0.628376
     28          6           0        2.577298    3.619608   -0.707441
     29          6           0        3.959372    3.704244   -1.369707
     30          1           0       -2.781829   -1.999840    1.946689
     31          1           0       -3.374378   -2.937737    0.553835
     32          1           0       -1.718088   -2.330689    0.558672
     33          1           0       -0.743233   -1.689434   -1.865053
     34          1           0       -0.050520   -0.233870   -2.554330
     35          1           0        2.256815   -0.965027   -1.792739
     36          1           0        1.567915   -2.420301   -1.101273
     37          1           0        0.786292   -3.134294   -3.377558
     38          1           0        1.474349   -1.676152   -4.070786
     39          1           0        3.034338   -3.615610   -4.381076
     40          1           0        3.783604   -2.404292   -3.331218
     41          1           0        3.091688   -3.874068   -2.631687
     42          1           0        0.131637   -0.802415    2.724567
     43          1           0        0.624263   -2.083398    1.632580
     44          1           0        2.808535   -0.892159    1.199809
     45          1           0        2.312596    0.417756    2.253493
     46          1           0        2.202724   -1.180429    4.188382
     47          1           0        2.703405   -2.490610    3.133209
     48          1           0        4.662115   -1.608250    4.426382
     49          1           0        4.901187   -1.309994    2.698818
     50          1           0        4.396549    0.010152    3.762329
     51          1           0       -0.072190    2.730369   -0.516290
     52          1           0        0.681645    2.509124    1.053278
     53          1           0        2.744906    1.561503   -0.082602
     54          1           0        1.977517    1.770063   -1.644382
     55          1           0        1.866406    4.248303   -1.260510
     56          1           0        2.630250    4.039737    0.306053
     57          1           0        4.322109    4.737599   -1.408208
     58          1           0        4.700606    3.112627   -0.819173
     59          1           0        3.931585    3.323984   -2.397872
 ---------------------------------------------------------------------

 SCF Done:  E(RHF) =  -6780.85558537     A.U. after   13 cycles
 E2 =    -0.2626699172D+01 EUMP2 =    -0.67834822845406D+04

 The electronic state is 1-A.
 Alpha  occ. eigenvalues -- **********-156.93685-146.51690-146.51688-146.51683
 Alpha  occ. eigenvalues --  -31.56972 -27.19876 -27.19870 -27.19850 -19.16143
 Alpha  occ. eigenvalues --  -19.16132 -19.16123 -19.16109 -19.16097 -15.54015
 Alpha  occ. eigenvalues --  -11.24264 -11.24157 -11.24035 -11.21958 -11.21884
 Alpha  occ. eigenvalues --  -11.21832 -11.21763 -11.21490 -11.21436 -11.21434
 Alpha  occ. eigenvalues --  -11.21340 -11.21332 -11.20793 -11.20743 -11.20680
 Alpha  occ. eigenvalues --  -11.20668 -11.20569 -11.20371  -5.49663  -3.95879
 Alpha  occ. eigenvalues --   -3.95865  -3.95839  -1.35960  -1.35922  -1.35910
 Alpha  occ. eigenvalues --   -1.35415  -1.35371  -1.22444  -1.07005  -1.06820
 Alpha  occ. eigenvalues --   -1.06531  -1.06450  -1.00599  -0.97625  -0.96903
 Alpha  occ. eigenvalues --   -0.96814  -0.93260  -0.85708  -0.84780  -0.84612
 Alpha  occ. eigenvalues --   -0.84142  -0.82572  -0.79067  -0.78701  -0.78605
 Alpha  occ. eigenvalues --   -0.74972  -0.65132  -0.64130  -0.64029  -0.63617
 Alpha  occ. eigenvalues --   -0.62663  -0.62114  -0.60911  -0.59090  -0.58268
 Alpha  occ. eigenvalues --   -0.58159  -0.58052  -0.57581  -0.57228  -0.57006
 Alpha  occ. eigenvalues --   -0.56452  -0.55535  -0.54120  -0.54069  -0.53467
 Alpha  occ. eigenvalues --   -0.52124  -0.51192  -0.50137  -0.49893  -0.49638
 Alpha  occ. eigenvalues --   -0.49347  -0.49076  -0.48960  -0.48707  -0.47455
 Alpha  occ. eigenvalues --   -0.47063  -0.47031  -0.46638  -0.46593  -0.46517
 Alpha  occ. eigenvalues --   -0.46297  -0.46109  -0.44442  -0.37060  -0.36064
 Alpha  occ. eigenvalues --   -0.36004  -0.33663
 Alpha virt. eigenvalues --    0.12790   0.13999   0.16007   0.17669   0.20646
 Alpha virt. eigenvalues --    0.21456   0.21876   0.22305   0.23362   0.24125
 Alpha virt. eigenvalues --    0.24807   0.24927   0.25264   0.25758   0.26058

 Mulliken atomic charges:
              1
     1  C   -0.404569
     2  N   -0.456833
     3  C   -0.210831
     4  C   -0.377285
     5  C   -0.408053
     6  C   -0.399633
     7  C   -0.446542
     8  H    0.209759
     9  H    0.151626
    10  H    0.221743
    11  H    0.195058
    12  H    0.229293
    13  H    0.228035
    14  H    0.192695
    15  H    0.178963
    16  H    0.226932
    17  Sn   1.089733
    18  C   -0.775028
    19  C   -0.319381
    20  C   -0.340773
    21  C   -0.572245
    22  C   -0.766212
    23  C   -0.322202
    24  C   -0.338951
    25  C   -0.572672
    26  C   -0.770425
    27  C   -0.325586
    28  C   -0.339334
    29  C   -0.571804
    30  H    0.175138
    31  H    0.221513
    32  H    0.185571
    33  H    0.234693
    34  H    0.216549
    35  H    0.183229
    36  H    0.183394
    37  H    0.182794
    38  H    0.181966
    39  H    0.202651
    40  H    0.177384
    41  H    0.176818
    42  H    0.221971
    43  H    0.216305
    44  H    0.188070
    45  H    0.185607
    46  H    0.180979
    47  H    0.181950
    48  H    0.202997
    49  H    0.178129
    50  H    0.177121
    51  H    0.222630
    52  H    0.220429
    53  H    0.188759
    54  H    0.186688
    55  H    0.181915
    56  H    0.181317
    57  H    0.202759
    58  H    0.177793
    59  H    0.177404
 Sum of Mulliken atomic charges =   0.00000

 Dipole moment (field-independent basis, Debye):
    X=             -0.5411    Y=              0.1534    Z=              0.6103  Tot=              0.8299
 Quadrupole moment (field-independent basis, Debye-Ang):
   XX=           -159.3789   YY=           -157.8294   ZZ=           -159.2756
   XY=             -0.1458   XZ=             -1.4027   YZ=             -0.8147

 Normal termination of Gaussian 09 at Sat Nov  5 21:38:48 2016.
