 Gaussian 09, Revision A.01,
 Gaussian 09:  EM64L-G09RevA.01  8-May-2009

 -------------
 # mp2/cc-pVTZ
 -------------

 -----------------------------------------
 2_1_Ad_N_Me_piperidine_eq_ax_single_point
 -----------------------------------------
 Symbolic Z-matrix:
 Charge =  0 Multiplicity = 1

                         Standard orientation:
 ---------------------------------------------------------------------
 Center     Atomic      Atomic             Coordinates (Angstroms)
 Number     Number       Type             X           Y           Z
 ---------------------------------------------------------------------
      1          7           0        1.998129    1.019350   -0.347892
      2          6           0        1.234125   -0.254500   -0.310956
      3          6           0        1.925072   -1.294938    0.603607
      4          6           0        3.362353   -1.563475    0.117907
      5          6           0        4.155965   -0.256336   -0.037105
      6          6           0        3.352184    0.765863   -0.862622
      7          6           0       -0.311893   -0.114874   -0.115856
      8          6           0       -0.989455   -1.391800   -0.701151
      9          6           0       -2.527413   -1.311613   -0.614937
     10          6           0       -3.022357   -0.088574   -1.412376
     11          6           0       -2.386844    1.188403   -0.827397
     12          6           0       -0.849894    1.097349   -0.921198
     13          6           0       -2.802683    1.336115    0.651226
     14          6           0       -2.317450    0.106854    1.447789
     15          6           0       -2.951278   -1.169385    0.860557
     16          6           0       -0.777931    0.009103    1.362883
     17          6           0        2.012735    1.829934    0.868392
     18          1           0       -4.118122   -0.024464   -1.366785
     19          1           0       -2.751433   -0.193508   -2.471815
     20          1           0       -2.958112   -2.229157   -1.037576
     21          1           0       -0.686261   -1.513909   -1.750348
     22          1           0       -0.643820   -2.284969   -0.165543
     23          1           0       -2.729686    2.063762   -1.394873
     24          1           0       -0.399751    2.026711   -0.558801
     25          1           0       -0.539681    1.000417   -1.970462
     26          1           0       -2.628973   -2.049382    1.434098
     27          1           0       -4.046014   -1.120766    0.937795
     28          1           0       -2.609720    0.211740    2.501169
     29          1           0       -0.437558   -0.863608    1.934710
     30          1           0       -0.337517    0.889338    1.842068
     31          1           0       -3.894280    1.430335    0.731002
     32          1           0       -2.371590    2.253864    1.074370
     33          1           0        1.337473   -0.635262   -1.339038
     34          1           0        1.360720   -2.233967    0.617505
     35          1           0        1.948368   -0.931985    1.638801
     36          1           0        3.317123   -2.073426   -0.855982
     37          1           0        3.876900   -2.247964    0.803600
     38          1           0        5.123035   -0.446007   -0.520754
     39          1           0        4.379179    0.161699    0.953857
     40          1           0        3.251794    0.395965   -1.892946
     41          1           0        3.883814    1.723084   -0.919314
     42          1           0        2.337674    1.305200    1.783684
     43          1           0        2.694844    2.672328    0.712772
     44          1           0        1.023264    2.249720    1.061475
 ---------------------------------------------------------------------

 SCF Done:  E(RHF) =  -676.275815861     A.U. after   12 cycles
 E2 =    -0.2955873922D+01 EUMP2 =    -0.67923168978268D+03

 The electronic state is 1-A.
 Alpha  occ. eigenvalues --  -15.53466 -11.24600 -11.24021 -11.23583 -11.22722
 Alpha  occ. eigenvalues --  -11.21711 -11.21699 -11.21673 -11.21439 -11.21372
 Alpha  occ. eigenvalues --  -11.21197 -11.21007 -11.20946 -11.20887 -11.20877
 Alpha  occ. eigenvalues --  -11.20807 -11.20325  -1.21832  -1.15356  -1.05998
 Alpha  occ. eigenvalues --   -1.04899  -1.02888  -1.02746  -0.98241  -0.93677
 Alpha  occ. eigenvalues --   -0.90134  -0.90007  -0.84363  -0.83232  -0.79018
 Alpha  occ. eigenvalues --   -0.78559  -0.77060  -0.73498  -0.69603  -0.64768
 Alpha  occ. eigenvalues --   -0.63238  -0.62099  -0.61316  -0.60666  -0.60290
 Alpha  occ. eigenvalues --   -0.60091  -0.57982  -0.56970  -0.56136  -0.55388
 Alpha  occ. eigenvalues --   -0.54789  -0.54440  -0.53492  -0.53084  -0.51937
 Alpha  occ. eigenvalues --   -0.50873  -0.49447  -0.48505  -0.47986  -0.45861
 Alpha  occ. eigenvalues --   -0.45568  -0.45396  -0.45342  -0.44949  -0.44230
 Alpha  occ. eigenvalues --   -0.44073  -0.39665  -0.39645  -0.39249  -0.33234
 Alpha virt. eigenvalues --    0.12882   0.14457   0.15144   0.15708   0.16892
 Alpha virt. eigenvalues --    0.17192   0.17460   0.18355   0.18502   0.18857
 Alpha virt. eigenvalues --    0.20580   0.21077   0.21269   0.21554   0.22166

 Mulliken atomic charges:
              1
     1  N   -0.249919
     2  C    0.104500
     3  C   -0.236655
     4  C   -0.199142
     5  C   -0.199227
     6  C   -0.106847
     7  C   -0.050609
     8  C   -0.235028
     9  C   -0.093777
    10  C   -0.223635
    11  C   -0.097574
    12  C   -0.215373
    13  C   -0.222214
    14  C   -0.089263
    15  C   -0.223471
    16  C   -0.244723
    17  C   -0.234957
    18  H    0.103477
    19  H    0.102953
    20  H    0.108480
    21  H    0.102642
    22  H    0.113845
    23  H    0.108567
    24  H    0.129698
    25  H    0.103197
    26  H    0.102181
    27  H    0.104559
    28  H    0.108378
    29  H    0.111713
    30  H    0.121849
    31  H    0.105042
    32  H    0.101294
    33  H    0.100807
    34  H    0.117623
    35  H    0.102128
    36  H    0.087378
    37  H    0.107371
    38  H    0.108811
    39  H    0.091430
    40  H    0.086497
    41  H    0.100777
    42  H    0.076081
    43  H    0.109122
    44  H    0.102015
 Sum of Mulliken atomic charges =   0.00000

 Dipole moment (field-independent basis, Debye):
    X=              0.4108    Y=             -0.4180    Z=              0.4555  Tot=              0.7423
 Quadrupole moment (field-independent basis, Debye-Ang):
   XX=           -107.3887   YY=           -109.2279   ZZ=           -108.9339
   XY=              0.0682   XZ=              0.3349   YZ=              1.5620

 Normal termination of Gaussian 09 at Sat Mar 19 01:32:47 2016.
