 Gaussian 09, Revision A.01,
 Gaussian 09:  EM64L-G09RevA.01  8-May-2009

 -------------
 # mp2/cc-pVTZ
 -------------

 -----------------------------------------
 2_1_Ad_N_Me_piperidine_eq_eq_single_point
 -----------------------------------------
 Symbolic Z-matrix:
 Charge =  0 Multiplicity = 1

                         Standard orientation:
 ---------------------------------------------------------------------
 Center     Atomic      Atomic             Coordinates (Angstroms)
 Number     Number       Type             X           Y           Z
 ---------------------------------------------------------------------
      1          7           0        2.055657    0.956055    0.225514
      2          6           0        1.282411   -0.131255   -0.442178
      3          6           0        1.883950   -1.496103   -0.025074
      4          6           0        3.394593   -1.612880   -0.241475
      5          6           0        4.108595   -0.461421    0.456736
      6          6           0        3.505698    0.853852   -0.018509
      7          6           0       -0.283937   -0.083345   -0.188355
      8          6           0       -0.934409   -1.477364   -0.461850
      9          6           0       -2.464396   -1.454176   -0.250821
     10          6           0       -3.120301   -0.440085   -1.204346
     11          6           0       -2.514700    0.948618   -0.936382
     12          6           0       -0.990753    0.898286   -1.174918
     13          6           0       -2.793778    1.364129    0.523568
     14          6           0       -2.164729    0.334124    1.485802
     15          6           0       -2.766695   -1.057380    1.207970
     16          6           0       -0.634809    0.294454    1.275932
     17          6           0        1.656361    2.320649   -0.116477
     18          1           0       -4.208110   -0.422591   -1.051543
     19          1           0       -2.946977   -0.732303   -2.249069
     20          1           0       -2.859245   -2.459579   -0.449243
     21          1           0       -0.706257   -1.800107   -1.487688
     22          1           0       -0.517644   -2.231779    0.212104
     23          1           0       -2.957085    1.685403   -1.620105
     24          1           0       -0.591918    1.910066   -1.096476
     25          1           0       -0.790012    0.566949   -2.203660
     26          1           0       -2.339722   -1.797585    1.898339
     27          1           0       -3.851479   -1.045953    1.380897
     28          1           0       -2.373665    0.626527    2.523428
     29          1           0       -0.184407   -0.436530    1.959760
     30          1           0       -0.202063    1.261896    1.544168
     31          1           0       -3.876714    1.430149    0.695856
     32          1           0       -2.379687    2.363329    0.717457
     33          1           0        1.416791   -0.040104   -1.542619
     34          1           0        1.394101   -2.288452   -0.594019
     35          1           0        1.661760   -1.672613    1.035563
     36          1           0        3.617304   -1.580500   -1.318170
     37          1           0        3.748319   -2.584976    0.123824
     38          1           0        5.184784   -0.466756    0.243752
     39          1           0        3.986942   -0.545369    1.544527
     40          1           0        3.731445    0.982482   -1.099275
     41          1           0        3.982247    1.690732    0.503179
     42          1           0        1.678418    2.518832   -1.205768
     43          1           0        0.662275    2.559059    0.256948
     44          1           0        2.352395    3.016773    0.361489
 ---------------------------------------------------------------------

 SCF Done:  E(RHF) =  -676.272348842     A.U. after   12 cycles
 E2 =    -0.2957315289D+01 EUMP2 =    -0.67922966413122D+03

 The electronic state is 1-A.
 Alpha  occ. eigenvalues --  -15.54050 -11.25250 -11.24051 -11.23506 -11.23120
 Alpha  occ. eigenvalues --  -11.21690 -11.21669 -11.21588 -11.21358 -11.21170
 Alpha  occ. eigenvalues --  -11.21050 -11.21010 -11.20977 -11.20879 -11.20871
 Alpha  occ. eigenvalues --  -11.20765 -11.20520  -1.21820  -1.15377  -1.06698
 Alpha  occ. eigenvalues --   -1.05059  -1.02950  -1.02790  -0.98315  -0.92809
 Alpha  occ. eigenvalues --   -0.90219  -0.90131  -0.84474  -0.83058  -0.79117
 Alpha  occ. eigenvalues --   -0.78574  -0.77077  -0.73545  -0.69665  -0.64731
 Alpha  occ. eigenvalues --   -0.62777  -0.62346  -0.61514  -0.60749  -0.60537
 Alpha  occ. eigenvalues --   -0.59988  -0.59090  -0.57718  -0.55655  -0.55109
 Alpha  occ. eigenvalues --   -0.54443  -0.54031  -0.53359  -0.52998  -0.52585
 Alpha  occ. eigenvalues --   -0.51944  -0.49993  -0.48715  -0.46338  -0.45822
 Alpha  occ. eigenvalues --   -0.45757  -0.45337  -0.45253  -0.44777  -0.44180
 Alpha  occ. eigenvalues --   -0.43114  -0.39762  -0.39240  -0.39127  -0.34644
 Alpha virt. eigenvalues --    0.13019   0.14762   0.15197   0.15570   0.16927
 Alpha virt. eigenvalues --    0.17095   0.17313   0.18246   0.18815   0.18952
 Alpha virt. eigenvalues --    0.20405   0.20968   0.21128   0.21695   0.22311

 Mulliken atomic charges:
              1
     1  N   -0.266070
     2  C    0.108617
     3  C   -0.215010
     4  C   -0.198409
     5  C   -0.180060
     6  C   -0.071632
     7  C   -0.057704
     8  C   -0.245908
     9  C   -0.092230
    10  C   -0.223107
    11  C   -0.092049
    12  C   -0.234282
    13  C   -0.224789
    14  C   -0.091938
    15  C   -0.224708
    16  C   -0.213975
    17  C   -0.219012
    18  H    0.102744
    19  H    0.103024
    20  H    0.108347
    21  H    0.106321
    22  H    0.116337
    23  H    0.108285
    24  H    0.128495
    25  H    0.102520
    26  H    0.102479
    27  H    0.104050
    28  H    0.108700
    29  H    0.108936
    30  H    0.131152
    31  H    0.106164
    32  H    0.101464
    33  H    0.086286
    34  H    0.116530
    35  H    0.095410
    36  H    0.087928
    37  H    0.106241
    38  H    0.102724
    39  H    0.087626
    40  H    0.052562
    41  H    0.094381
    42  H    0.070941
    43  H    0.098476
    44  H    0.104146
 Sum of Mulliken atomic charges =   0.00000

 Dipole moment (field-independent basis, Debye):
    X=              0.1441    Y=             -0.0242    Z=             -0.4653  Tot=              0.4877
 Quadrupole moment (field-independent basis, Debye-Ang):
   XX=           -108.0591   YY=           -107.4485   ZZ=           -109.9615
   XY=              0.1400   XZ=             -0.7774   YZ=             -0.2142

 Normal termination of Gaussian 09 at Sat Mar 19 07:40:47 2016.
