 Gaussian 09, Revision A.01,
 Gaussian 09:  EM64L-G09RevA.01  8-May-2009

 -------------
 # mp2/cc-pVTZ
 -------------

 -----------------------------------------
 2_2_Ad_N_Me_piperidine_ax_ax_single_point
 -----------------------------------------
 Symbolic Z-matrix:
 Charge =  0 Multiplicity = 1

                         Standard orientation:
 ---------------------------------------------------------------------
 Center     Atomic      Atomic             Coordinates (Angstroms)
 Number     Number       Type             X           Y           Z
 ---------------------------------------------------------------------
      1          6           0        1.889760    0.250955    1.810019
      2          6           0        2.892220   -0.612443    1.016940
      3          6           0        3.595978    0.262928   -0.042685
      4          6           0        2.545950    0.858876   -1.004890
      5          6           0        1.545862    1.715954   -0.200702
      6          6           0        0.830972    0.840998    0.853721
      7          6           0        2.128687   -1.750567    0.308559
      8          6           0        1.068747   -1.161333   -0.650674
      9          6           0        1.784812   -0.287007   -1.705704
     10          6           0        0.052491   -0.322892    0.178179
     11          6           0       -1.191248    0.157611   -0.625074
     12          6           0       -2.041749   -1.001923   -1.210279
     13          6           0       -2.842982   -1.750573   -0.130426
     14          6           0       -3.685134   -0.765649    0.696536
     15          6           0       -2.801569    0.379804    1.225514
     16          7           0       -2.022984    1.073406    0.190997
     17          6           0       -2.815028    2.010594   -0.597967
     18          1           0       -0.832103    0.759160   -1.466971
     19          1           0       -1.412679   -1.698279   -1.774637
     20          1           0       -2.747103   -0.576602   -1.937010
     21          1           0       -2.160930   -2.296754    0.535362
     22          1           0       -3.485029   -2.506745   -0.598669
     23          1           0       -4.169560   -1.276616    1.538637
     24          1           0       -4.490844   -0.357949    0.070957
     25          1           0       -2.102252   -0.024905    1.969456
     26          1           0       -3.409310    1.127665    1.748171
     27          1           0       -3.601171    1.552126   -1.225294
     28          1           0       -3.303391    2.723996    0.075142
     29          1           0       -2.152699    2.578968   -1.259503
     30          1           0        4.156685    1.070562    0.447726
     31          1           0        4.325406   -0.336855   -0.604336
     32          1           0        3.047981    1.481573   -1.757375
     33          1           0        2.485813   -0.908351   -2.279946
     34          1           0        1.068572    0.121704   -2.429893
     35          1           0        3.639658   -1.038495    1.699420
     36          1           0        1.643282   -2.399211    1.050458
     37          1           0        2.829887   -2.380859   -0.255509
     38          1           0        0.818273    2.186010   -0.873773
     39          1           0        2.075368    2.535909    0.303541
     40          1           0        0.122195    1.457542    1.414446
     41          1           0       -0.307702   -0.977013    0.984834
     42          1           0        2.418881    1.062576    2.328271
     43          1           0        1.401493   -0.355054    2.585753
     44          1           0        0.555551   -1.989944   -1.152643
 ---------------------------------------------------------------------

 SCF Done:  E(RHF) =  -676.279389129     A.U. after   12 cycles
 E2 =    -0.2953158415D+01 EUMP2 =    -0.67923254754323D+03

 The electronic state is 1-A.
 Alpha  occ. eigenvalues --  -15.53382 -11.24556 -11.24090 -11.23823 -11.21711
 Alpha  occ. eigenvalues --  -11.21670 -11.21521 -11.21489 -11.21454 -11.21345
 Alpha  occ. eigenvalues --  -11.21299 -11.20949 -11.20920 -11.20792 -11.20788
 Alpha  occ. eigenvalues --  -11.20590 -11.20527  -1.21941  -1.15153  -1.06062
 Alpha  occ. eigenvalues --   -1.04293  -1.02694  -1.02543  -0.99368  -0.93882
 Alpha  occ. eigenvalues --   -0.89756  -0.88977  -0.84015  -0.83237  -0.78893
 Alpha  occ. eigenvalues --   -0.78445  -0.78133  -0.72733  -0.68745  -0.66041
 Alpha  occ. eigenvalues --   -0.63188  -0.62358  -0.62040  -0.60889  -0.60149
 Alpha  occ. eigenvalues --   -0.59319  -0.57402  -0.56659  -0.55847  -0.54943
 Alpha  occ. eigenvalues --   -0.54795  -0.54268  -0.53613  -0.53156  -0.52353
 Alpha  occ. eigenvalues --   -0.51045  -0.50177  -0.48986  -0.48097  -0.46190
 Alpha  occ. eigenvalues --   -0.45433  -0.45240  -0.45174  -0.44170  -0.43840
 Alpha  occ. eigenvalues --   -0.43448  -0.39717  -0.39453  -0.39121  -0.33108
 Alpha virt. eigenvalues --    0.12719   0.14214   0.14774   0.15779   0.16982
 Alpha virt. eigenvalues --    0.17352   0.17425   0.18003   0.18577   0.19441
 Alpha virt. eigenvalues --    0.19608   0.20304   0.21043   0.21948   0.22417

 Mulliken atomic charges:
              1
     1  C   -0.238584
     2  C   -0.074172
     3  C   -0.227104
     4  C   -0.071043
     5  C   -0.242842
     6  C   -0.062764
     7  C   -0.229176
     8  C   -0.102477
     9  C   -0.239213
    10  C   -0.135929
    11  C   -0.012799
    12  C   -0.229972
    13  C   -0.200471
    14  C   -0.200626
    15  C   -0.114526
    16  N   -0.251449
    17  C   -0.202524
    18  H    0.119340
    19  H    0.119134
    20  H    0.106986
    21  H    0.092196
    22  H    0.114109
    23  H    0.108753
    24  H    0.091643
    25  H    0.095533
    26  H    0.108134
    27  H    0.065704
    28  H    0.095587
    29  H    0.092811
    30  H    0.102846
    31  H    0.102394
    32  H    0.107066
    33  H    0.108447
    34  H    0.108905
    35  H    0.107192
    36  H    0.103012
    37  H    0.102437
    38  H    0.110159
    39  H    0.107010
    40  H    0.126541
    41  H    0.117233
    42  H    0.101655
    43  H    0.101223
    44  H    0.119619
 Sum of Mulliken atomic charges =   0.00000

 Dipole moment (field-independent basis, Debye):
    X=             -0.6569    Y=             -0.3670    Z=             -0.3195  Tot=              0.8175
 Quadrupole moment (field-independent basis, Debye-Ang):
   XX=           -107.3865   YY=           -109.4234   ZZ=           -108.4504
   XY=             -0.3399   XZ=             -0.1983   YZ=             -0.9198

 Normal termination of Gaussian 09 at Sat Mar 19 13:54:01 2016.
