 Gaussian 09, Revision A.01,
 Gaussian 09:  EM64L-G09RevA.01  8-May-2009

 -------------
 # mp2/cc-pVTZ
 -------------

 -----------------------------------------
 2_2_Ad_N_Me_piperidine_eq_ax_single_point
 -----------------------------------------
 Symbolic Z-matrix:
 Charge =  0 Multiplicity = 1

                         Standard orientation:
 ---------------------------------------------------------------------
 Center     Atomic      Atomic             Coordinates (Angstroms)
 Number     Number       Type             X           Y           Z
 ---------------------------------------------------------------------
      1          6           0        1.435163    0.573699    1.640991
      2          6           0        2.353745   -0.640495    1.389329
      3          6           0        3.594467   -0.185605    0.590455
      4          6           0        3.148645    0.421168   -0.757242
      5          6           0        2.227256    1.630493   -0.495364
      6          6           0        0.978924    1.178720    0.294072
      7          6           0        1.580168   -1.701023    0.576613
      8          6           0        1.123316   -1.096934   -0.770349
      9          6           0        2.372093   -0.642032   -1.560374
     10          6           0        0.195018    0.133046   -0.550500
     11          6           0       -1.196980   -0.205556    0.038677
     12          6           0       -1.990992   -1.254207   -0.777051
     13          6           0       -3.331731   -1.586284   -0.094340
     14          6           0       -4.134414   -0.317165    0.231010
     15          6           0       -3.246756    0.691335    0.982875
     16          7           0       -1.997256    1.020222    0.285521
     17          6           0       -2.210348    1.892577   -0.868545
     18          1           0       -1.047199   -0.637014    1.038548
     19          1           0       -1.407411   -2.174544   -0.886398
     20          1           0       -2.169793   -0.876007   -1.793415
     21          1           0       -3.126424   -2.127629    0.841620
     22          1           0       -3.920361   -2.266163   -0.722860
     23          1           0       -5.016163   -0.561755    0.837697
     24          1           0       -4.508341    0.135805   -0.697151
     25          1           0       -2.978288    0.270696    1.962962
     26          1           0       -3.791242    1.623906    1.174850
     27          1           0       -2.727633    1.424036   -1.724222
     28          1           0       -2.812321    2.749587   -0.548184
     29          1           0       -1.256513    2.283959   -1.232493
     30          1           0        4.162768    0.556289    1.168319
     31          1           0        4.265111   -1.038677    0.416468
     32          1           0        4.030785    0.742294   -1.327234
     33          1           0        3.017807   -1.508075   -1.761660
     34          1           0        2.070923   -0.235502   -2.535626
     35          1           0        2.671038   -1.070420    2.348835
     36          1           0        0.721315   -2.066504    1.154504
     37          1           0        2.221947   -2.572757    0.387366
     38          1           0        1.927306    2.088920   -1.448186
     39          1           0        2.768698    2.400728    0.071304
     40          1           0        0.331730    2.039081    0.491946
     41          1           0        0.023800    0.571356   -1.545056
     42          1           0        1.973052    1.338065    2.218736
     43          1           0        0.569149    0.279772    2.246298
     44          1           0        0.601620   -1.861428   -1.357146
 ---------------------------------------------------------------------

 SCF Done:  E(RHF) =  -676.280183063     A.U. after   12 cycles
 E2 =    -0.2953381394D+01 EUMP2 =    -0.67923356445616D+03

 The electronic state is 1-A.
 Alpha  occ. eigenvalues --  -15.53497 -11.24535 -11.24071 -11.23649 -11.21777
 Alpha  occ. eigenvalues --  -11.21728 -11.21585 -11.21584 -11.21578 -11.21390
 Alpha  occ. eigenvalues --  -11.21261 -11.21079 -11.21008 -11.20980 -11.20868
 Alpha  occ. eigenvalues --  -11.20758 -11.20597  -1.21939  -1.15269  -1.05884
 Alpha  occ. eigenvalues --   -1.04716  -1.02770  -1.02659  -0.99100  -0.93833
 Alpha  occ. eigenvalues --   -0.89928  -0.89819  -0.83954  -0.82503  -0.78873
 Alpha  occ. eigenvalues --   -0.78494  -0.77476  -0.73953  -0.69422  -0.64956
 Alpha  occ. eigenvalues --   -0.63879  -0.63135  -0.61065  -0.61022  -0.60342
 Alpha  occ. eigenvalues --   -0.59208  -0.57386  -0.56798  -0.55855  -0.55020
 Alpha  occ. eigenvalues --   -0.54891  -0.54191  -0.53561  -0.53243  -0.52617
 Alpha  occ. eigenvalues --   -0.50710  -0.49501  -0.48744  -0.47931  -0.46710
 Alpha  occ. eigenvalues --   -0.45532  -0.45384  -0.45266  -0.44498  -0.44252
 Alpha  occ. eigenvalues --   -0.43309  -0.39840  -0.39587  -0.39170  -0.33244
 Alpha virt. eigenvalues --    0.12859   0.14375   0.14576   0.15778   0.16966
 Alpha virt. eigenvalues --    0.17097   0.17424   0.18170   0.18582   0.19047
 Alpha virt. eigenvalues --    0.20083   0.20317   0.21074   0.21849   0.22549

 Mulliken atomic charges:
              1
     1  C   -0.241529
     2  C   -0.071669
     3  C   -0.226904
     4  C   -0.073943
     5  C   -0.237126
     6  C   -0.071810
     7  C   -0.237274
     8  C   -0.115544
     9  C   -0.228945
    10  C   -0.124518
    11  C    0.008098
    12  C   -0.224686
    13  C   -0.197306
    14  C   -0.203448
    15  C   -0.104256
    16  N   -0.253741
    17  C   -0.227496
    18  H    0.110228
    19  H    0.116991
    20  H    0.100367
    21  H    0.087552
    22  H    0.108727
    23  H    0.108856
    24  H    0.092514
    25  H    0.086241
    26  H    0.101779
    27  H    0.074788
    28  H    0.105640
    29  H    0.105158
    30  H    0.103099
    31  H    0.102497
    32  H    0.107505
    33  H    0.102383
    34  H    0.103254
    35  H    0.107686
    36  H    0.109051
    37  H    0.108547
    38  H    0.101754
    39  H    0.102202
    40  H    0.128572
    41  H    0.114742
    42  H    0.107495
    43  H    0.113298
    44  H    0.121170
 Sum of Mulliken atomic charges =   0.00000

 Dipole moment (field-independent basis, Debye):
    X=             -0.5264    Y=             -0.4024    Z=             -0.4075  Tot=              0.7778
 Quadrupole moment (field-independent basis, Debye-Ang):
   XX=           -107.3619   YY=           -109.1901   ZZ=           -108.8529
   XY=             -0.2474   XZ=              0.2801   YZ=             -1.2617

 Normal termination of Gaussian 09 at Sat Mar 19 20:02:31 2016.
