 Gaussian 09, Revision A.01,
 Gaussian 09:  EM64L-G09RevA.01  8-May-2009

 -------------
 # mp2/cc-pVTZ
 -------------

 ----------------------------------
 2_methylpiperidine_eq_single_point
 ----------------------------------
 Symbolic Z-matrix:
 Charge =  0 Multiplicity = 1

                         Standard orientation:
 ---------------------------------------------------------------------
 Center     Atomic      Atomic             Coordinates (Angstroms)
 Number     Number       Type             X           Y           Z
 ---------------------------------------------------------------------
      1          6           0       -1.234656    1.233138    0.205296
      2          6           0        0.259090    1.275259   -0.154923
      3          6           0        0.991954    0.010903    0.320754
      4          7           0        0.309856   -1.164533   -0.238478
      5          6           0       -1.087405   -1.283396    0.189096
      6          6           0       -1.883077   -0.066776   -0.294636
      7          6           0        2.461657    0.002096   -0.098324
      8          1           0        0.823399   -2.009294   -0.000836
      9          1           0        0.945622   -0.002170    1.430151
     10          1           0       -1.180456   -1.355772    1.291449
     11          1           0       -1.500637   -2.205255   -0.234872
     12          1           0        0.375251    1.351040   -1.244661
     13          1           0        0.734336    2.159764    0.287805
     14          1           0       -2.920736   -0.139561    0.053824
     15          1           0       -1.902461   -0.072434   -1.391966
     16          1           0       -1.344872    1.294360    1.297915
     17          1           0       -1.751813    2.106449   -0.210397
     18          1           0        2.547921    0.030824   -1.189852
     19          1           0        2.988747    0.867426    0.317670
     20          1           0        2.971327   -0.900988    0.259542
 ---------------------------------------------------------------------

 SCF Done:  E(RHF) =  -289.326532205     A.U. after   11 cycles
 E2 =    -0.1253178457D+01 EUMP2 =    -0.29057971066200D+03

 The electronic state is 1-A.
 Alpha  occ. eigenvalues --  -15.53235 -11.24852 -11.24232 -11.21575 -11.21330
 Alpha  occ. eigenvalues --  -11.21228 -11.21048  -1.20591  -1.05010  -1.03314
 Alpha  occ. eigenvalues --   -0.93188  -0.85297  -0.80820  -0.74911  -0.66909
 Alpha  occ. eigenvalues --   -0.62171  -0.60692  -0.59131  -0.57003  -0.55178
 Alpha  occ. eigenvalues --   -0.52663  -0.51385  -0.50685  -0.47218  -0.46273
 Alpha  occ. eigenvalues --   -0.43883  -0.43493  -0.36164
 Alpha virt. eigenvalues --    0.14084   0.15794   0.16338   0.16688   0.19536
 Alpha virt. eigenvalues --    0.20460   0.21219   0.21723   0.23607   0.23897
 Alpha virt. eigenvalues --    0.24488   0.24597   0.27031   0.30423   0.32587

 Mulliken atomic charges:
              1
     1  C   -0.200344
     2  C   -0.179670
     3  C    0.042854
     4  N   -0.301140
     5  C   -0.089014
     6  C   -0.174311
     7  C   -0.294276
     8  H    0.116774
     9  H    0.073729
    10  H    0.060595
    11  H    0.098958
    12  H    0.088681
    13  H    0.101273
    14  H    0.100767
    15  H    0.087625
    16  H    0.086346
    17  H    0.106660
    18  H    0.096226
    19  H    0.089637
    20  H    0.088631
 Sum of Mulliken atomic charges =   0.00000

 Dipole moment (field-independent basis, Debye):
    X=              0.0104    Y=             -0.1633    Z=              0.8691  Tot=              0.8844
 Quadrupole moment (field-independent basis, Debye-Ang):
   XX=            -45.6119   YY=            -44.5096   ZZ=            -47.4768
   XY=             -0.2088   XZ=              0.6983   YZ=             -1.1869

 Normal termination of Gaussian 09 at Sat Mar 19 20:34:51 2016.
