 Gaussian 09, Revision A.01,
 Gaussian 09:  EM64L-G09RevA.01  8-May-2009

 -------------
 # mp2/cc-pVTZ
 -------------

 ----------------------------------
 2_methylpiperidine_ax_single_point
 ----------------------------------
 Symbolic Z-matrix:
 Charge =  0 Multiplicity = 1

                         Standard orientation:
 ---------------------------------------------------------------------
 Center     Atomic      Atomic             Coordinates (Angstroms)
 Number     Number       Type             X           Y           Z
 ---------------------------------------------------------------------
      1          6           0       -1.000226    1.226460    0.355205
      2          6           0        0.207950    1.283916   -0.595020
      3          6           0        1.095297    0.026119   -0.501011
      4          7           0        0.240817   -1.160465   -0.692583
      5          6           0       -0.867027   -1.290050    0.260508
      6          6           0       -1.791633   -0.073954    0.146468
      7          6           0        1.956925   -0.003302    0.778994
      8          1           0        0.807622   -2.003876   -0.696288
      9          1           0        1.784899    0.042941   -1.355318
     10          1           0       -0.530358   -1.388248    1.310070
     11          1           0       -1.413816   -2.207555    0.015514
     12          1           0       -0.156842    1.364806   -1.626542
     13          1           0        0.812807    2.176649   -0.394174
     14          1           0       -2.604616   -0.155548    0.878413
     15          1           0       -2.246194   -0.070632   -0.852833
     16          1           0       -0.663181    1.284215    1.399466
     17          1           0       -1.644900    2.098573    0.191607
     18          1           0        1.353889    0.002944    1.692358
     19          1           0        2.583851   -0.902799    0.799422
     20          1           0        2.623399    0.866646    0.815525
 ---------------------------------------------------------------------

 SCF Done:  E(RHF) =  -289.321239442     A.U. after   12 cycles
 E2 =    -0.1253834393D+01 EUMP2 =    -0.29057507383528D+03

 The electronic state is 1-A.
 Alpha  occ. eigenvalues --  -15.53063 -11.24911 -11.24120 -11.21540 -11.21289
 Alpha  occ. eigenvalues --  -11.21273 -11.21017  -1.20196  -1.04951  -1.02772
 Alpha  occ. eigenvalues --   -0.93581  -0.85110  -0.82146  -0.72808  -0.67783
 Alpha  occ. eigenvalues --   -0.62373  -0.60818  -0.57447  -0.55887  -0.55365
 Alpha  occ. eigenvalues --   -0.55005  -0.51822  -0.50464  -0.47726  -0.45696
 Alpha  occ. eigenvalues --   -0.43888  -0.43126  -0.35703
 Alpha virt. eigenvalues --    0.13381   0.16218   0.16418   0.16837   0.19667
 Alpha virt. eigenvalues --    0.20129   0.20689   0.21884   0.23015   0.23724
 Alpha virt. eigenvalues --    0.24515   0.26006   0.28367   0.31178   0.32623

 Mulliken atomic charges:
              1
     1  C   -0.212057
     2  C   -0.186837
     3  C    0.011338
     4  N   -0.301717
     5  C   -0.089996
     6  C   -0.175680
     7  C   -0.302492
     8  H    0.114254
     9  H    0.103660
    10  H    0.066096
    11  H    0.103241
    12  H    0.099054
    13  H    0.099551
    14  H    0.100934
    15  H    0.087655
    16  H    0.090946
    17  H    0.111156
    18  H    0.091908
    19  H    0.093213
    20  H    0.095774
 Sum of Mulliken atomic charges =   0.00000

 Dipole moment (field-independent basis, Debye):
    X=              0.4218    Y=             -0.1169    Z=              0.7349  Tot=              0.8553
 Quadrupole moment (field-independent basis, Debye-Ang):
   XX=            -45.2392   YY=            -44.5492   ZZ=            -48.1750
   XY=             -0.6911   XZ=             -0.9312   YZ=             -0.8959

 Normal termination of Gaussian 09 at Sat Mar 19 20:18:53 2016.
