 Gaussian 09, Revision A.01,
 Gaussian 09:  EM64L-G09RevA.01  8-May-2009

 -------------
 # mp2/cc-pVTZ
 -------------

 ----------------------------
 2_propylamine_g_single_point
 ----------------------------
 Symbolic Z-matrix:
 Charge =  0 Multiplicity = 1

                         Standard orientation:
 ---------------------------------------------------------------------
 Center     Atomic      Atomic             Coordinates (Angstroms)
 Number     Number       Type             X           Y           Z
 ---------------------------------------------------------------------
      1          6           0        1.362923   -0.497723    0.082738
      2          6           0       -0.002807    0.027049   -0.369521
      3          7           0       -0.135708    1.430531    0.053594
      4          6           0       -1.145119   -0.884877    0.111709
      5          1           0        2.165314    0.139016   -0.300594
      6          1           0        1.430808   -0.507154    1.178803
      7          1           0        1.527928   -1.521976   -0.267939
      8          1           0       -0.015437    0.038724   -1.468175
      9          1           0       -2.118192   -0.505042   -0.221115
     10          1           0       -1.033649   -1.905566   -0.274189
     11          1           0       -1.162058   -0.938863    1.207974
     12          1           0       -1.025552    1.819611   -0.248949
     13          1           0       -0.109190    1.500837    1.069472
 ---------------------------------------------------------------------

 SCF Done:  E(RHF) =  -173.353670155     A.U. after   12 cycles
 E2 =    -0.7550148113D+00 EUMP2 =    -0.17410868496607D+03

 The electronic state is 1-A.
 Alpha  occ. eigenvalues --  -15.53166 -11.25349 -11.21288 -11.20983  -1.17621
 Alpha  occ. eigenvalues --   -1.00817  -0.92880  -0.78708  -0.66232  -0.60650
 Alpha  occ. eigenvalues --   -0.59283  -0.55805  -0.53369  -0.50902  -0.48341
 Alpha  occ. eigenvalues --   -0.46962  -0.38423
 Alpha virt. eigenvalues --    0.13543   0.17259   0.17650   0.18812   0.21146
 Alpha virt. eigenvalues --    0.21590   0.23687   0.25490   0.26500   0.29733
 Alpha virt. eigenvalues --    0.33554   0.35191   0.38011   0.42235   0.44838

 Mulliken atomic charges:
              1
     1  C   -0.281903
     2  C    0.047817
     3  N   -0.382899
     4  C   -0.278154
     5  H    0.109524
     6  H    0.078252
     7  H    0.088220
     8  H    0.094844
     9  H    0.088033
    10  H    0.086541
    11  H    0.079669
    12  H    0.136582
    13  H    0.133476
 Sum of Mulliken atomic charges =   0.00000

 Dipole moment (field-independent basis, Debye):
    X=             -0.9608    Y=             -0.6267    Z=              0.4179  Tot=              1.2209
 Quadrupole moment (field-independent basis, Debye-Ang):
   XX=            -27.6035   YY=            -29.5126   ZZ=            -26.3106
   XY=             -2.5238   XZ=              0.4783   YZ=              1.3457

 Normal termination of Gaussian 09 at Sat Mar 19 20:41:50 2016.
