 Gaussian 09, Revision A.01,
 Gaussian 09:  EM64L-G09RevA.01  8-May-2009

 -------------
 # mp2/cc-pVTZ
 -------------

 ----------------------------
 2_propylamine_a_single_point
 ----------------------------
 Symbolic Z-matrix:
 Charge =  0 Multiplicity = 1

                         Standard orientation:
 ---------------------------------------------------------------------
 Center     Atomic      Atomic             Coordinates (Angstroms)
 Number     Number       Type             X           Y           Z
 ---------------------------------------------------------------------
      1          6           0       -1.266914   -0.700635   -0.096223
      2          6           0       -0.000003    0.026178    0.362634
      3          7           0        0.000102    1.385531   -0.201740
      4          6           0        1.266802   -0.700823   -0.096209
      5          1           0       -2.168747   -0.172721    0.236672
      6          1           0       -1.295109   -0.762303   -1.189599
      7          1           0       -1.304874   -1.715293    0.314688
      8          1           0       -0.000014    0.039671    1.468183
      9          1           0        2.168722   -0.173095    0.236748
     10          1           0        1.304570   -1.715510    0.314645
     11          1           0        1.295017   -0.762423   -1.189588
     12          1           0       -0.819149    1.907428    0.099717
     13          1           0        0.819566    1.907211    0.099500
 ---------------------------------------------------------------------

 SCF Done:  E(RHF) =  -173.354286317     A.U. after   11 cycles
 E2 =    -0.7550149575D+00 EUMP2 =    -0.17410930127491D+03

 The electronic state is 1-A.
 Alpha  occ. eigenvalues --  -15.53149 -11.25312 -11.20982 -11.20981  -1.17607
 Alpha  occ. eigenvalues --   -1.00865  -0.92847  -0.77770  -0.64684  -0.64673
 Alpha  occ. eigenvalues --   -0.59428  -0.53591  -0.52533  -0.50432  -0.48774
 Alpha  occ. eigenvalues --   -0.47177  -0.38424
 Alpha virt. eigenvalues --    0.13562   0.17678   0.17853   0.19013   0.21278
 Alpha virt. eigenvalues --    0.21441   0.22560   0.26443   0.27220   0.29675
 Alpha virt. eigenvalues --    0.34747   0.35231   0.37937   0.41131   0.44582

 Mulliken atomic charges:
              1
     1  C   -0.278929
     2  C    0.055398
     3  N   -0.389337
     4  C   -0.278941
     5  H    0.086565
     6  H    0.096533
     7  H    0.086731
     8  H    0.075558
     9  H    0.086565
    10  H    0.086736
    11  H    0.096536
    12  H    0.138292
    13  H    0.138293
 Sum of Mulliken atomic charges =   0.00000

 Dipole moment (field-independent basis, Debye):
    X=              0.0002    Y=              0.1832    Z=              1.2591  Tot=              1.2724
 Quadrupole moment (field-independent basis, Debye-Ang):
   XX=            -26.6914   YY=            -26.0887   ZZ=            -29.1250
   XY=              0.0002   XZ=             -0.0002   YZ=              1.9807

 Normal termination of Gaussian 09 at Sat Mar 19 20:38:19 2016.
