 Gaussian 09, Revision A.01,
 Gaussian 09:  EM64L-G09RevA.01  8-May-2009

 -------------
 # mp2/cc-pVTZ
 -------------

 ----------------------------------
 3_methylpiperidine_eq_single_point
 ----------------------------------
 Symbolic Z-matrix:
 Charge =  0 Multiplicity = 1

                         Standard orientation:
 ---------------------------------------------------------------------
 Center     Atomic      Atomic             Coordinates (Angstroms)
 Number     Number       Type             X           Y           Z
 ---------------------------------------------------------------------
      1          6           0        0.271541    1.270585    0.160636
      2          6           0        1.008748    0.015081   -0.341846
      3          6           0        0.266591   -1.242584    0.138074
      4          7           0       -1.132648   -1.206283   -0.294622
      5          6           0       -1.865806   -0.070762    0.270565
      6          6           0       -1.222420    1.237685   -0.199854
      7          6           0        2.478939    0.000980    0.090853
      8          1           0       -1.596909   -2.079871   -0.065047
      9          1           0        0.736478   -2.139741   -0.281479
     10          1           0       -1.871837   -0.088462    1.379513
     11          1           0       -2.907666   -0.128286   -0.063394
     12          1           0        0.964703    0.012011   -1.440411
     13          1           0       -1.743675    2.091269    0.250800
     14          1           0       -1.342103    1.316541   -1.287881
     15          1           0        0.379314    1.329186    1.254888
     16          1           0        0.744232    2.173071   -0.247851
     17          1           0        0.361802   -1.306052    1.242087
     18          1           0        3.002603   -0.880591   -0.297422
     19          1           0        3.005276    0.889335   -0.276284
     20          1           0        2.570763   -0.010341    1.184266
 ---------------------------------------------------------------------

 SCF Done:  E(RHF) =  -289.324100762     A.U. after   11 cycles
 E2 =    -0.1253049409D+01 EUMP2 =    -0.29057715017115D+03

 The electronic state is 1-A.
 Alpha  occ. eigenvalues --  -15.53351 -11.24242 -11.24119 -11.21978 -11.21455
 Alpha  occ. eigenvalues --  -11.21355 -11.21057  -1.20331  -1.06749  -1.02092
 Alpha  occ. eigenvalues --   -0.92134  -0.85947  -0.81044  -0.74728  -0.67037
 Alpha  occ. eigenvalues --   -0.61790  -0.61212  -0.58779  -0.57484  -0.54776
 Alpha  occ. eigenvalues --   -0.53629  -0.51547  -0.50388  -0.47401  -0.45664
 Alpha  occ. eigenvalues --   -0.43735  -0.43274  -0.36174
 Alpha virt. eigenvalues --    0.14131   0.15523   0.16309   0.16683   0.19685
 Alpha virt. eigenvalues --    0.20268   0.21275   0.21614   0.23055   0.23856
 Alpha virt. eigenvalues --    0.24505   0.25770   0.27471   0.29959   0.32052

 Mulliken atomic charges:
              1
     1  C   -0.190093
     2  C   -0.061078
     3  C   -0.073954
     4  N   -0.294120
     5  C   -0.079903
     6  C   -0.186724
     7  C   -0.309969
     8  H    0.120437
     9  H    0.095401
    10  H    0.061298
    11  H    0.097849
    12  H    0.097992
    13  H    0.101080
    14  H    0.089739
    15  H    0.084699
    16  H    0.103591
    17  H    0.059786
    18  H    0.098087
    19  H    0.099332
    20  H    0.086550
 Sum of Mulliken atomic charges =   0.00000

 Dipole moment (field-independent basis, Debye):
    X=             -0.1081    Y=             -0.1795    Z=              0.7721  Tot=              0.8000
 Quadrupole moment (field-independent basis, Debye-Ang):
   XX=            -45.5771   YY=            -44.4234   ZZ=            -47.6780
   XY=              0.4341   XZ=             -1.5525   YZ=             -1.2181

 Normal termination of Gaussian 09 at Sat Mar 19 22:52:12 2016.
