 Gaussian 09, Revision A.01,
 Gaussian 09:  EM64L-G09RevA.01  8-May-2009

 -------------
 # mp2/cc-pVTZ
 -------------

 ----------------------------------
 3_methylpiperidine_ax_single_point
 ----------------------------------
 Symbolic Z-matrix:
 Charge =  0 Multiplicity = 1

                         Standard orientation:
 ---------------------------------------------------------------------
 Center     Atomic      Atomic             Coordinates (Angstroms)
 Number     Number       Type             X           Y           Z
 ---------------------------------------------------------------------
      1          6           0        0.224739    1.269133    0.625569
      2          6           0        1.114454    0.011901    0.492407
      3          6           0        0.227591   -1.243484    0.607705
      4          7           0       -0.847306   -1.204596   -0.388274
      5          6           0       -1.756522   -0.074286   -0.180248
      6          6           0       -0.979874    1.238928   -0.330620
      7          6           0        1.954485    0.007924   -0.794438
      8          1           0       -1.360242   -2.080819   -0.391076
      9          1           0        0.825350   -2.146449    0.437701
     10          1           0       -2.227210   -0.099609    0.824173
     11          1           0       -2.561802   -0.132358   -0.920834
     12          1           0        1.806749   -0.001078    1.346080
     13          1           0       -1.643891    2.088037   -0.126891
     14          1           0       -0.643973    1.333704   -1.370073
     15          1           0       -0.148669    1.326567    1.658293
     16          1           0        0.822861    2.174003    0.459319
     17          1           0       -0.169953   -1.299464    1.641183
     18          1           0        2.564085    0.916295   -0.866430
     19          1           0        2.634988   -0.851650   -0.810591
     20          1           0        1.323615   -0.055710   -1.685184
 ---------------------------------------------------------------------

 SCF Done:  E(RHF) =  -289.321190760     A.U. after   11 cycles
 E2 =    -0.1254204778D+01 EUMP2 =    -0.29057539553822D+03

 The electronic state is 1-A.
 Alpha  occ. eigenvalues --  -15.53356 -11.24273 -11.24149 -11.22082 -11.21457
 Alpha  occ. eigenvalues --  -11.21332 -11.20263  -1.20354  -1.06372  -1.01852
 Alpha  occ. eigenvalues --   -0.91976  -0.85832  -0.82021  -0.72397  -0.68216
 Alpha  occ. eigenvalues --   -0.61944  -0.60338  -0.58940  -0.57124  -0.55313
 Alpha  occ. eigenvalues --   -0.53890  -0.51069  -0.49789  -0.47431  -0.45571
 Alpha  occ. eigenvalues --   -0.43395  -0.43201  -0.36084
 Alpha virt. eigenvalues --    0.13526   0.16144   0.16576   0.16960   0.19564
 Alpha virt. eigenvalues --    0.20264   0.20475   0.21868   0.22975   0.23456
 Alpha virt. eigenvalues --    0.25259   0.26463   0.27942   0.30576   0.31355

 Mulliken atomic charges:
              1
     1  C   -0.199278
     2  C   -0.081541
     3  C   -0.091930
     4  N   -0.294629
     5  C   -0.081820
     6  C   -0.196836
     7  C   -0.306105
     8  H    0.120701
     9  H    0.095474
    10  H    0.059489
    11  H    0.097912
    12  H    0.107253
    13  H    0.107547
    14  H    0.096540
    15  H    0.095885
    16  H    0.102616
    17  H    0.078448
    18  H    0.092070
    19  H    0.094675
    20  H    0.103531
 Sum of Mulliken atomic charges =   0.00000

 Dipole moment (field-independent basis, Debye):
    X=             -0.4966    Y=             -0.2287    Z=              0.7728  Tot=              0.9467
 Quadrupole moment (field-independent basis, Debye-Ang):
   XX=            -44.9713   YY=            -44.3940   ZZ=            -47.7590
   XY=              0.8404   XZ=              0.5130   YZ=             -0.9278

 Normal termination of Gaussian 09 at Sat Mar 19 22:37:16 2016.
