 Gaussian 09, Revision A.01,
 Gaussian 09:  EM64L-G09RevA.01  8-May-2009

 -------------
 # mp2/cc-pVTZ
 -------------

 -------------------------------------
 3_OH_hexahydropyrimidine_single_point
 -------------------------------------
 Symbolic Z-matrix:
 Charge =  0 Multiplicity = 1

                         Standard orientation:
 ---------------------------------------------------------------------
 Center     Atomic      Atomic             Coordinates (Angstroms)
 Number     Number       Type             X           Y           Z
 ---------------------------------------------------------------------
      1          6           0       -1.695525    0.032110   -0.126108
      2          7           0       -0.962972   -1.226198   -0.278827
      3          6           0        0.224057   -1.267153    0.578992
      4          6           0        1.122082   -0.028530    0.442508
      5          6           0        0.271080    1.247184    0.592949
      6          7           0       -0.912423    1.264897   -0.269576
      7          8           0        1.725127   -0.103451   -0.860110
      8          1           0        2.332382    0.639396   -0.972519
      9          1           0       -0.618712    1.365584   -1.239008
     10          1           0       -0.677495   -1.342516   -1.248617
     11          1           0        1.903867   -0.053631    1.218161
     12          1           0       -0.107702   -1.342958    1.623609
     13          1           0        0.801661   -2.168205    0.350662
     14          1           0        0.875721    2.140270    0.388295
     15          1           0       -0.062272    1.324736    1.637801
     16          1           0       -2.515738    0.053013   -0.849209
     17          1           0       -2.135127    0.039352    0.880471
 ---------------------------------------------------------------------

 SCF Done:  E(RHF) =  -341.155448423     A.U. after   12 cycles
 E2 =    -0.1343878750D+01 EUMP2 =    -0.34249932717357D+03

 The electronic state is 1-A.
 Alpha  occ. eigenvalues --  -20.55811 -15.53881 -15.53550 -11.27940 -11.27050
 Alpha  occ. eigenvalues --  -11.25275 -11.24745  -1.36027  -1.23723  -1.15081
 Alpha  occ. eigenvalues --   -1.02270  -0.89003  -0.87119  -0.78782  -0.69671
 Alpha  occ. eigenvalues --   -0.67382  -0.65186  -0.62614  -0.60522  -0.56883
 Alpha  occ. eigenvalues --   -0.54061  -0.53551  -0.51135  -0.50259  -0.48701
 Alpha  occ. eigenvalues --   -0.45982  -0.39767  -0.34843
 Alpha virt. eigenvalues --    0.12952   0.15079   0.16699   0.18270   0.19712
 Alpha virt. eigenvalues --    0.20550   0.21328   0.22770   0.23687   0.24819
 Alpha virt. eigenvalues --    0.31316   0.31689   0.33200   0.34170   0.35973

 Mulliken atomic charges:
              1
     1  C    0.001383
     2  N   -0.288589
     3  C   -0.084637
     4  C    0.099172
     5  C   -0.103986
     6  N   -0.279719
     7  O   -0.441182
     8  H    0.219951
     9  H    0.103648
    10  H    0.112087
    11  H    0.094692
    12  H    0.088617
    13  H    0.108601
    14  H    0.094053
    15  H    0.091654
    16  H    0.102437
    17  H    0.081818
 Sum of Mulliken atomic charges =   0.00000

 Dipole moment (field-independent basis, Debye):
    X=              1.6718    Y=              1.0926    Z=              0.2745  Tot=              2.0159
 Quadrupole moment (field-independent basis, Debye-Ang):
   XX=            -43.0416   YY=            -47.4457   ZZ=            -40.5799
   XY=              3.1285   XZ=              1.6098   YZ=             -1.4465

 1\1\GINC-ROCK\SP\RMP2-FC\CC-pVTZ\C4H10N2O1\STYLIANAKIS\19-Mar-2016\0\\
 # mp2/cc-pVTZ\\3_OH_hexahydropyrimidine_single_point\\0,1\C\N,1,1.464\
 C,2,1.465118,1,111.614\C,3,1.53599,2,113.523,1,-50.84,0\C,4,1.540871,3
 ,109.637,2,50.649,0\N,5,1.464562,4,113.504,3,-50.927,0\O,4,1.43739,3,1
 06.486,2,-69.876,0\H,7,0.966031,4,109.214,3,-177.429,0\H,6,1.017941,5,
 109.202,4,-69.618,0\H,2,1.017605,3,109.117,4,70.637,0\H,4,1.101569,3,1
 09.511,2,171.43,0\H,3,1.098651,4,108.462,5,-69.771,0\H,3,1.094374,4,10
 9.684,5,173.074,0\H,5,1.09776,4,110.558,3,-173.757,0\H,5,1.099478,4,10

 Normal termination of Gaussian 09 at Sat Mar 19 23:03:51 2016.
