 Gaussian 09, Revision A.01,
 Gaussian 09:  EM64L-G09RevA.01  8-May-2009

 -------------
 # mp2/cc-pVTZ
 -------------

 ----------------------------------------
 3_OH_hexahydropyrimidine_HB_single_point
 ----------------------------------------
 Symbolic Z-matrix:
 Charge =  0 Multiplicity = 1

                         Standard orientation:
 ---------------------------------------------------------------------
 Center     Atomic      Atomic             Coordinates (Angstroms)
 Number     Number       Type             X           Y           Z
 ---------------------------------------------------------------------
      1          6           0        1.666201    0.021450   -0.115406
      2          7           0        0.785681    1.183974   -0.345662
      3          6           0       -0.299981    1.217733    0.643505
      4          6           0       -1.147973   -0.042425    0.413853
      5          6           0       -0.253705   -1.288148    0.569820
      6          7           0        0.957074   -1.236139   -0.261149
      7          8           0       -1.741638    0.003808   -0.884882
      8          1           0       -1.085274    0.422767   -1.465321
      9          1           0        0.708876   -1.381582   -1.236682
     10          1           0        1.315702    2.051292   -0.347573
     11          1           0       -1.974127   -0.083987    1.133073
     12          1           0        0.071782    1.228754    1.684993
     13          1           0       -0.907959    2.114221    0.486674
     14          1           0       -0.821035   -2.186005    0.308324
     15          1           0        0.054176   -1.382348    1.621195
     16          1           0        2.491156    0.058160   -0.832731
     17          1           0        2.093264    0.041757    0.904146
 ---------------------------------------------------------------------

 SCF Done:  E(RHF) =  -341.156071175     A.U. after   12 cycles
 E2 =    -0.1345445045D+01 EUMP2 =    -0.34250151622059D+03

 The electronic state is 1-A.
 Alpha  occ. eigenvalues --  -20.54140 -15.55256 -15.54274 -11.28167 -11.27456
 Alpha  occ. eigenvalues --  -11.25586 -11.24688  -1.34978  -1.24444  -1.15863
 Alpha  occ. eigenvalues --   -1.02145  -0.89233  -0.87600  -0.78097  -0.70931
 Alpha  occ. eigenvalues --   -0.66713  -0.63935  -0.62827  -0.60153  -0.59429
 Alpha  occ. eigenvalues --   -0.56852  -0.54031  -0.51303  -0.49579  -0.46772
 Alpha  occ. eigenvalues --   -0.45351  -0.38718  -0.36861
 Alpha virt. eigenvalues --    0.13416   0.15286   0.16788   0.17656   0.19636
 Alpha virt. eigenvalues --    0.20143   0.22192   0.22651   0.23483   0.24823
 Alpha virt. eigenvalues --    0.30206   0.31734   0.32224   0.34177   0.35421

 Mulliken atomic charges:
              1
     1  C    0.002488
     2  N   -0.325897
     3  C   -0.111334
     4  C    0.117298
     5  C   -0.080160
     6  N   -0.288906
     7  O   -0.462097
     8  H    0.233465
     9  H    0.113364
    10  H    0.128298
    11  H    0.115281
    12  H    0.078899
    13  H    0.112057
    14  H    0.106407
    15  H    0.086839
    16  H    0.101543
    17  H    0.072455
 Sum of Mulliken atomic charges =   0.00000

 Dipole moment (field-independent basis, Debye):
    X=              1.5520    Y=              1.6198    Z=              0.9453  Tot=              2.4344
 Quadrupole moment (field-independent basis, Debye-Ang):
   XX=            -47.3952   YY=            -42.9771   ZZ=            -41.6272
   XY=              3.2793   XZ=             -3.4873   YZ=              0.6901

 1\1\GINC-ROCK\SP\RMP2-FC\CC-pVTZ\C4H10N2O1\STYLIANAKIS\19-Mar-2016\0\\
 # mp2/cc-pVTZ\\3_OH_hexahydropyrimidine_HB_single_point\\0,1\C\N,1,1.4
 76413\C,2,1.4691,1,110.721\C,3,1.536173,2,106.764,1,-63.797,0\C,4,1.54
 1385,3,109.122,2,58.427,0\N,5,1.469422,4,113.093,3,-52.604,0\O,4,1.428
 736,3,109.799,2,-63.503,0\H,7,0.97121,4,106.046,3,36.035,0\H,6,1.01706
 5,5,109.65,4,-72.884,0\H,2,1.016448,3,111.531,4,171.844,0\H,4,1.096146
 ,3,110.43,2,179.319,0\H,3,1.105905,4,109.544,5,-63.89,0\H,3,1.094498,4
 ,110.112,5,177.145,0\H,5,1.093796,4,109.773,3,-174.231,0\H,5,1.09957,4

 Normal termination of Gaussian 09 at Sat Mar 19 23:15:35 2016.
