 Gaussian 09, Revision E.01,
 Gaussian 09:  ES64L-G09RevE.01 30-Nov-2015

 -------------
 # mp2/cc-pVTZ
 -------------

 ------------------
 3b-aminotropane-3a
 ------------------
 Symbolic Z-matrix:
 Charge =  2 Multiplicity = 1

                         Standard orientation:
 ---------------------------------------------------------------------
 Center     Atomic      Atomic             Coordinates (Angstroms)
 Number     Number       Type             X           Y           Z
 ---------------------------------------------------------------------
      1          7           0       -1.143686   -0.000155   -0.840122
      2          6           0       -0.605272   -1.185059   -0.031968
      3          6           0       -0.605240    1.185078   -0.032300
      4          6           0        0.912803   -1.276951   -0.298061
      5          6           0        0.912830    1.276871   -0.298417
      6          6           0        1.621785    0.000020    0.188465
      7          6           0       -2.644620   -0.000163   -1.027457
      8          7           0        3.085335   -0.000055   -0.260217
      9          6           0       -0.968608    0.780869    1.413265
     10          6           0       -0.968596   -0.780409    1.413503
     11          1           0       -1.098556   -2.096582   -0.374687
     12          1           0       -1.098535    2.096466   -0.375354
     13          1           0        1.294115   -2.162950    0.220780
     14          1           0        1.088671   -1.437405   -1.371459
     15          1           0        1.088703    1.437023   -1.371856
     16          1           0        1.294175    2.163002    0.220180
     17          1           0        1.681664    0.000174    1.279765
     18          1           0       -3.137008    0.000143   -0.057248
     19          1           0       -2.920157    0.893759   -1.588536
     20          1           0       -2.920230   -0.894400   -1.588003
     21          1           0        3.587863    0.826159    0.091320
     22          1           0        3.587846   -0.826176    0.091566
     23          1           0       -1.948206    1.176503    1.688352
     24          1           0       -0.259528    1.209238    2.125932
     25          1           0       -1.948184   -1.175962    1.688738
     26          1           0       -0.259492   -1.208558    2.126277
     27          1           0       -0.738863   -0.000280   -1.781729
     28          1           0        3.183692   -0.000213   -1.283835
 ---------------------------------------------------------------------

 SCF Done:  E(RHF) =  -421.929455921     A.U. after   11 cycles
 E2 =    -0.1776654184D+01 EUMP2 =    -0.42370611010429D+03

 The electronic state is 1-A.
 Alpha  occ. eigenvalues --  -16.01089 -15.97309 -11.62212 -11.59078 -11.59076
 Alpha  occ. eigenvalues --  -11.55533 -11.55532 -11.55511 -11.51635 -11.51581
 Alpha  occ. eigenvalues --   -1.62775  -1.61371  -1.41344  -1.35713  -1.33954
 Alpha  occ. eigenvalues --   -1.25181  -1.20873  -1.17669  -1.10841  -1.09917
 Alpha  occ. eigenvalues --   -1.07925  -1.06378  -1.02009  -0.99962  -0.96747
 Alpha  occ. eigenvalues --   -0.92394  -0.91798  -0.89424  -0.89370  -0.87333
 Alpha  occ. eigenvalues --   -0.86870  -0.83834  -0.83767  -0.81605  -0.79518
 Alpha  occ. eigenvalues --   -0.79132  -0.77807  -0.76712  -0.75679
 Alpha virt. eigenvalues --   -0.18055  -0.15373  -0.13310  -0.12055  -0.10499
 Alpha virt. eigenvalues --   -0.09428  -0.09238  -0.08559  -0.06788  -0.05962
 Alpha virt. eigenvalues --   -0.05151  -0.04297  -0.03719  -0.03174  -0.02857

 Mulliken charges:
               1
     1  N   -0.011625
     2  C   -0.030710
     3  C   -0.030691
     4  C   -0.265177
     5  C   -0.265173
     6  C   -0.042416
     7  C   -0.195117
     8  N    0.018655
     9  C   -0.267174
    10  C   -0.267172
    11  H    0.201947
    12  H    0.201953
    13  H    0.192692
    14  H    0.168998
    15  H    0.169002
    16  H    0.192694
    17  H    0.198717
    18  H    0.159422
    19  H    0.167163
    20  H    0.167163
    21  H    0.222184
    22  H    0.222184
    23  H    0.190299
    24  H    0.171766
    25  H    0.190301
    26  H    0.171763
    27  H    0.156825
    28  H    0.211527
 Sum of Mulliken charges =   2.00000

 Dipole moment (field-independent basis, Debye):
    X=              6.7106    Y=             -0.0003    Z=             -2.6504  Tot=              7.2151
 Quadrupole moment (field-independent basis, Debye-Ang):
   XX=              1.3565   YY=            -47.0925   ZZ=            -46.0235
   XY=             -0.0000   XZ=              0.6729   YZ=              0.0003

 Normal termination of Gaussian 09 at Thu Sep  6 15:09:00 2018.
