 Gaussian 09, Revision E.01,
 Gaussian 09:  ES64L-G09RevE.01 30-Nov-2015

 -------------
 # mp2/cc-pVTZ
 -------------

 ------------------
 3b-aminotropane-3c
 ------------------
 Symbolic Z-matrix:
 Charge =  2 Multiplicity = 1

                         Standard orientation:
 ---------------------------------------------------------------------
 Center     Atomic      Atomic             Coordinates (Angstroms)
 Number     Number       Type             X           Y           Z
 ---------------------------------------------------------------------
      1          7           0       -1.355086    0.667030   -0.000007
      2          6           0       -0.768055   -0.109114   -1.187671
      3          6           0       -0.768063   -0.109077    1.187662
      4          6           0        0.746231    0.164678   -1.277450
      5          6           0        0.746226    0.164729    1.277445
      6          6           0        1.455650   -0.318569    0.000009
      7          6           0       -1.277307    2.169384   -0.000023
      8          7           0        2.919513    0.130868    0.000001
      9          6           0       -1.123469   -1.556880    0.782841
     10          6           0       -1.123469   -1.556900   -0.782804
     11          1           0       -1.263475    0.227499   -2.100528
     12          1           0       -1.263484    0.227550    2.100514
     13          1           0        1.120950   -0.366500   -2.159090
     14          1           0        0.928957    1.231975   -1.452650
     15          1           0        0.928935    1.232038    1.452596
     16          1           0        1.120943   -0.366409    2.159110
     17          1           0        1.518361   -1.409752    0.000032
     18          1           0       -0.243853    2.505181   -0.000293
     19          1           0       -1.785490    2.539350   -0.892122
     20          1           0       -1.785030    2.539352    0.892338
     21          1           0        3.421974   -0.220801    0.826192
     22          1           0        3.421984   -0.220858   -0.826159
     23          1           0       -2.108613   -1.824993    1.172954
     24          1           0       -0.420050   -2.273945    1.212425
     25          1           0       -2.108616   -1.825020   -1.172907
     26          1           0       -0.420054   -2.273982   -1.212370
     27          1           0       -2.358895    0.450281   -0.000011
     28          1           0        3.018004    1.154246   -0.000035
 ---------------------------------------------------------------------

 SCF Done:  E(RHF) =  -421.925882285     A.U. after   11 cycles
 E2 =    -0.1776706711D+01 EUMP2 =    -0.42370258899636D+03

 The electronic state is 1-A.
 Alpha  occ. eigenvalues --  -16.01063 -15.97466 -11.62142 -11.59187 -11.59186
 Alpha  occ. eigenvalues --  -11.56399 -11.55365 -11.55363 -11.51757 -11.51704
 Alpha  occ. eigenvalues --   -1.62753  -1.61504  -1.41434  -1.35718  -1.34592
 Alpha  occ. eigenvalues --   -1.23965  -1.20953  -1.19894  -1.09875  -1.09712
 Alpha  occ. eigenvalues --   -1.06550  -1.06362  -1.03591  -0.99631  -0.97481
 Alpha  occ. eigenvalues --   -0.92802  -0.92062  -0.90261  -0.89271  -0.86835
 Alpha  occ. eigenvalues --   -0.86640  -0.85356  -0.83810  -0.81448  -0.79865
 Alpha  occ. eigenvalues --   -0.78775  -0.77836  -0.76626  -0.75747
 Alpha virt. eigenvalues --   -0.18166  -0.14796  -0.14091  -0.12008  -0.10736
 Alpha virt. eigenvalues --   -0.09292  -0.08976  -0.07681  -0.06636  -0.06391
 Alpha virt. eigenvalues --   -0.06293  -0.04923  -0.03947  -0.03323  -0.02561

 Mulliken charges:
               1
     1  N    0.009264
     2  C   -0.034164
     3  C   -0.034183
     4  C   -0.281263
     5  C   -0.281249
     6  C   -0.041242
     7  C   -0.207710
     8  N    0.017886
     9  C   -0.262206
    10  C   -0.262206
    11  H    0.204800
    12  H    0.204801
    13  H    0.201328
    14  H    0.175024
    15  H    0.175023
    16  H    0.201328
    17  H    0.198333
    18  H    0.126336
    19  H    0.177642
    20  H    0.177635
    21  H    0.222166
    22  H    0.222166
    23  H    0.190978
    24  H    0.166243
    25  H    0.190978
    26  H    0.166243
    27  H    0.165488
    28  H    0.210558
 Sum of Mulliken charges =   2.00000

 Dipole moment (field-independent basis, Debye):
    X=              5.7925    Y=              1.9809    Z=             -0.0000  Tot=              6.1218
 Quadrupole moment (field-independent basis, Debye-Ang):
   XX=             -5.2868   YY=            -43.1378   ZZ=            -47.0688
   XY=             -1.8646   XZ=              0.0001   YZ=             -0.0000

 Normal termination of Gaussian 09 at Thu Sep  6 15:28:32 2018.
