 Gaussian 09, Revision A.01,
 Gaussian 09:  EM64L-G09RevA.01  8-May-2009

 -------------
 # mp2/cc-pVTZ
 -------------

 -------------------------------
 3b_aminotropane_2a_single_point
 -------------------------------
 Symbolic Z-matrix:
 Charge =  1 Multiplicity = 1

                         Standard orientation:
 ---------------------------------------------------------------------
 Center     Atomic      Atomic             Coordinates (Angstroms)
 Number     Number       Type             X           Y           Z
 ---------------------------------------------------------------------
      1          6           0        0.951089    0.779226    1.417436
      2          6           0        0.558647    1.187798   -0.017722
      3          7           0        1.074566   -0.000052   -0.841251
      4          6           0        0.558642   -1.187791   -0.017615
      5          6           0        0.951056   -0.779088    1.417515
      6          6           0       -0.952196   -1.270520   -0.264819
      7          6           0       -1.704352    0.000004    0.187485
      8          6           0       -0.952183    1.270492   -0.264916
      9          6           0        2.553081   -0.000057   -1.087689
     10          7           0       -3.035656   -0.000010   -0.413665
     11          1           0        1.065603    2.089163   -0.369955
     12          1           0        1.065591   -2.089205   -0.369733
     13          1           0       -1.338415    2.150533    0.260982
     14          1           0       -1.148709    1.437162   -1.332874
     15          1           0       -1.148710   -1.437290   -1.332765
     16          1           0       -1.338444   -2.150512    0.261150
     17          1           0       -1.735794    0.000044    1.289625
     18          1           0        3.081413   -0.000085   -0.136042
     19          1           0        2.813783   -0.893742   -1.656498
     20          1           0        2.813796    0.893654   -1.656454
     21          1           0       -3.573128   -0.817498   -0.134833
     22          1           0       -3.573087    0.817552   -0.134965
     23          1           0        1.935042   -1.173899    1.682111
     24          1           0        0.241112   -1.197253    2.134072
     25          1           0        1.935097    1.174027    1.681962
     26          1           0        0.241182    1.197489    2.133973
     27          1           0        0.608602   -0.000088   -1.753398
 ---------------------------------------------------------------------

 SCF Done:  E(RHF) =  -421.682627703     A.U. after   12 cycles
 E2 =    -0.1785508578D+01 EUMP2 =    -0.42346813628081D+03

 The electronic state is 1-A.
 Alpha  occ. eigenvalues --  -15.83911 -15.66461 -11.44873 -11.44872 -11.44184
 Alpha  occ. eigenvalues --  -11.40397 -11.38828 -11.38773 -11.37945 -11.37943
 Alpha  occ. eigenvalues --   -1.48409  -1.32133  -1.24710  -1.20797  -1.17034
 Alpha  occ. eigenvalues --   -1.11529  -1.05003  -1.00458  -0.96163  -0.94541
 Alpha  occ. eigenvalues --   -0.86241  -0.85406  -0.81482  -0.80327  -0.76351
 Alpha  occ. eigenvalues --   -0.76305  -0.74244  -0.73753  -0.72630  -0.72239
 Alpha  occ. eigenvalues --   -0.70255  -0.68565  -0.66739  -0.64815  -0.64052
 Alpha  occ. eigenvalues --   -0.62124  -0.61557  -0.60608  -0.52013
 Alpha virt. eigenvalues --   -0.02496   0.00953   0.01281   0.01802   0.03472
 Alpha virt. eigenvalues --    0.04638   0.04759   0.04854   0.06787   0.07917
 Alpha virt. eigenvalues --    0.08739   0.09828   0.10636   0.11275   0.11790

 Mulliken atomic charges:
              1
     1  C   -0.257987
     2  C   -0.037663
     3  N    0.006202
     4  C   -0.037669
     5  C   -0.257990
     6  C   -0.243286
     7  C    0.032310
     8  C   -0.243290
     9  C   -0.207398
    10  N   -0.375476
    11  H    0.175295
    12  H    0.175291
    13  H    0.151388
    14  H    0.137041
    15  H    0.137041
    16  H    0.151387
    17  H    0.128666
    18  H    0.146388
    19  H    0.152591
    20  H    0.152587
    21  H    0.158535
    22  H    0.158534
    23  H    0.164775
    24  H    0.157935
    25  H    0.164776
    26  H    0.157937
    27  H    0.152081
 Sum of Mulliken atomic charges =   1.00000

 Dipole moment (field-independent basis, Debye):
    X=              3.2455    Y=              0.0000    Z=             -0.6781  Tot=              3.3156
 Quadrupole moment (field-independent basis, Debye-Ang):
   XX=            -42.4141   YY=            -52.6696   ZZ=            -54.4495
   XY=             -0.0004   XZ=             -7.5348   YZ=             -0.0001

 Normal termination of Gaussian 09 at Wed Apr 27 02:06:57 2016.
