 Gaussian 09, Revision A.01,
 Gaussian 09:  EM64L-G09RevA.01  8-May-2009

 -------------
 # mp2/cc-pVTZ
 -------------

 -------------------------------
 3b_aminotropane_1c_single_point
 -------------------------------
 Symbolic Z-matrix:
 Charge =  0 Multiplicity = 1

                         Standard orientation:
 ---------------------------------------------------------------------
 Center     Atomic      Atomic             Coordinates (Angstroms)
 Number     Number       Type             X           Y           Z
 ---------------------------------------------------------------------
      1          6           0       -1.146732   -1.508731   -0.779901
      2          6           0       -0.765646   -0.054273   -1.151281
      3          7           0       -1.322820    0.677030   -0.000026
      4          6           0       -0.765619   -0.054158    1.151283
      5          6           0       -1.146692   -1.508658    0.780041
      6          6           0        0.765047    0.140002    1.271578
      7          6           0        1.501656   -0.325280    0.000014
      8          6           0        0.765054    0.139824   -1.271615
      9          6           0       -1.218080    2.127240   -0.000081
     10          7           0        2.875243    0.206214   -0.000024
     11          1           0       -1.254688    0.279891   -2.073895
     12          1           0       -1.254641    0.280071    2.073885
     13          1           0        1.143009   -0.409329   -2.145391
     14          1           0        0.994350    1.198859   -1.441344
     15          1           0        0.994311    1.199072    1.441145
     16          1           0        1.143044   -0.409013    2.145423
     17          1           0        1.501277   -1.428483    0.000099
     18          1           0       -0.191147    2.528741   -0.000156
     19          1           0       -1.731648    2.520772   -0.884346
     20          1           0       -1.731542    2.520831    0.884219
     21          1           0        3.386082   -0.119794    0.818109
     22          1           0        3.386136   -0.120053   -0.818019
     23          1           0       -2.143313   -1.741401    1.165059
     24          1           0       -0.449335   -2.238523    1.204189
     25          1           0       -2.143375   -1.741501   -1.164843
     26          1           0       -0.449411   -2.238646   -1.204023
 ---------------------------------------------------------------------

 SCF Done:  E(RHF) =  -421.280689071     A.U. after   12 cycles
 E2 =    -0.1795767513D+01 EUMP2 =    -0.42307645658371D+03

 The electronic state is 1-A.
 Alpha  occ. eigenvalues --  -15.53330 -15.53199 -11.25027 -11.24672 -11.24670
 Alpha  occ. eigenvalues --  -11.23565 -11.21512 -11.21458 -11.21113 -11.21111
 Alpha  occ. eigenvalues --   -1.23697  -1.17340  -1.05011  -1.01663  -0.99932
 Alpha  occ. eigenvalues --   -0.90532  -0.87478  -0.81101  -0.77357  -0.71488
 Alpha  occ. eigenvalues --   -0.67300  -0.65615  -0.64059  -0.61443  -0.59125
 Alpha  occ. eigenvalues --   -0.58102  -0.56443  -0.55086  -0.53307  -0.51389
 Alpha  occ. eigenvalues --   -0.50761  -0.49403  -0.49004  -0.46024  -0.44560
 Alpha  occ. eigenvalues --   -0.43806  -0.43679  -0.38440  -0.33673
 Alpha virt. eigenvalues --    0.13519   0.14584   0.16009   0.16189   0.18315
 Alpha virt. eigenvalues --    0.19111   0.19901   0.20563   0.21186   0.23380
 Alpha virt. eigenvalues --    0.24156   0.24537   0.24969   0.25118   0.27833

 Mulliken atomic charges:
              1
     1  C   -0.224536
     2  C    0.025736
     3  N   -0.269392
     4  C    0.025743
     5  C   -0.224544
     6  C   -0.242247
     7  C    0.046126
     8  C   -0.242249
     9  C   -0.203518
    10  N   -0.390700
    11  H    0.107295
    12  H    0.107293
    13  H    0.106351
    14  H    0.109801
    15  H    0.109797
    16  H    0.106351
    17  H    0.093065
    18  H    0.066380
    19  H    0.098915
    20  H    0.098914
    21  H    0.136591
    22  H    0.136591
    23  H    0.111167
    24  H    0.099951
    25  H    0.111167
    26  H    0.099952
 Sum of Mulliken atomic charges =   0.00000

 Dipole moment (field-independent basis, Debye):
    X=              0.7652    Y=             -1.1252    Z=              0.0002  Tot=              1.3608
 Quadrupole moment (field-independent basis, Debye-Ang):
   XX=            -64.6101   YY=            -64.1627   ZZ=            -61.2528
   XY=             -4.2649   XZ=              0.0007   YZ=              0.0005

 Normal termination of Gaussian 09 at Sat Mar 19 22:20:42 2016.
