 Gaussian 09, Revision A.01,
 Gaussian 09:  EM64L-G09RevA.01  8-May-2009

 -------------
 # mp2/cc-pVTZ
 -------------

 -------------------------------
 3b_aminotropane_2b_single_point
 -------------------------------
 Symbolic Z-matrix:
 Charge =  1 Multiplicity = 1

                         Standard orientation:
 ---------------------------------------------------------------------
 Center     Atomic      Atomic             Coordinates (Angstroms)
 Number     Number       Type             X           Y           Z
 ---------------------------------------------------------------------
      1          6           0       -1.569180   -1.067243   -0.777875
      2          6           0       -0.462245   -0.069817   -1.178747
      3          7           0       -0.450615    0.900798   -0.000020
      4          6           0       -0.462242   -0.069711    1.178749
      5          6           0       -1.569115   -1.067250    0.777920
      6          6           0        0.958752   -0.699027    1.272289
      7          6           0        1.800452   -0.460046    0.000027
      8          6           0        0.958720   -0.699254   -1.272165
      9          6           0       -1.547743    1.912008   -0.000055
     10          7           0        2.240753    0.960378   -0.000111
     11          1           0       -0.704863    0.493217   -2.082047
     12          1           0       -0.704945    0.493356    2.082007
     13          1           0        1.493319   -0.297240   -2.139042
     14          1           0        0.859967   -1.774841   -1.442824
     15          1           0        0.860052   -1.774576    1.443215
     16          1           0        1.493344   -0.296766    2.139056
     17          1           0        2.651650   -1.150991    0.000060
     18          1           0       -2.519999    1.420171    0.000072
     19          1           0       -1.449610    2.533451    0.891458
     20          1           0       -1.449739    2.533249   -0.891723
     21          1           0        2.811991    1.168790   -0.817270
     22          1           0        2.812022    1.168921    0.816992
     23          1           0       -2.539352   -0.750355    1.169041
     24          1           0       -1.368010   -2.052948    1.202088
     25          1           0       -2.539420   -0.750218   -1.168890
     26          1           0       -1.368222   -2.052956   -1.202078
     27          1           0        0.486466    1.383536   -0.000059
 ---------------------------------------------------------------------

 SCF Done:  E(RHF) =  -421.683450911     A.U. after   12 cycles
 E2 =    -0.1792332033D+01 EUMP2 =    -0.42347578294472D+03

 The electronic state is 1-A.
 Alpha  occ. eigenvalues --  -15.81097 -15.70251 -11.43915 -11.43913 -11.42728
 Alpha  occ. eigenvalues --  -11.41802 -11.38232 -11.38231 -11.37897 -11.37842
 Alpha  occ. eigenvalues --   -1.46806  -1.34263  -1.23849  -1.19669  -1.17227
 Alpha  occ. eigenvalues --   -1.10785  -1.04854  -0.99817  -0.95169  -0.93311
 Alpha  occ. eigenvalues --   -0.86287  -0.85735  -0.82093  -0.79675  -0.77030
 Alpha  occ. eigenvalues --   -0.75891  -0.73564  -0.73238  -0.73081  -0.70135
 Alpha  occ. eigenvalues --   -0.69862  -0.68423  -0.66009  -0.63985  -0.63860
 Alpha  occ. eigenvalues --   -0.62208  -0.61684  -0.61036  -0.55105
 Alpha virt. eigenvalues --   -0.01604   0.01034   0.02450   0.02743   0.04162
 Alpha virt. eigenvalues --    0.04892   0.05407   0.05995   0.06465   0.07831
 Alpha virt. eigenvalues --    0.08299   0.09329   0.10498   0.10716   0.12199

 Mulliken atomic charges:
              1
     1  C   -0.246119
     2  C   -0.037759
     3  N    0.001173
     4  C   -0.037782
     5  C   -0.246110
     6  C   -0.236119
     7  C   -0.027731
     8  C   -0.236128
     9  C   -0.217881
    10  N   -0.401419
    11  H    0.172001
    12  H    0.171998
    13  H    0.153073
    14  H    0.145140
    15  H    0.145140
    16  H    0.153069
    17  H    0.155927
    18  H    0.143051
    19  H    0.147886
    20  H    0.147882
    21  H    0.176097
    22  H    0.176095
    23  H    0.157921
    24  H    0.154395
    25  H    0.157914
    26  H    0.154404
    27  H    0.173881
 Sum of Mulliken atomic charges =   1.00000

 Dipole moment (field-independent basis, Debye):
    X=              0.1130    Y=              1.4975    Z=             -0.0001  Tot=              1.5018
 Quadrupole moment (field-independent basis, Debye-Ang):
   XX=            -44.3066   YY=            -51.5319   ZZ=            -53.1740
   XY=             -1.2814   XZ=             -0.0002   YZ=              0.0001

 Normal termination of Gaussian 09 at Wed Apr 27 03:03:36 2016.
