 Gaussian 09, Revision A.01,
 Gaussian 09:  EM64L-G09RevA.01  8-May-2009

 -------------
 # mp2/cc-pVTZ
 -------------

 -------------------------------
 3b_aminotropane_1a_single_point
 -------------------------------
 Symbolic Z-matrix:
 Charge =  0 Multiplicity = 1

                         Standard orientation:
 ---------------------------------------------------------------------
 Center     Atomic      Atomic             Coordinates (Angstroms)
 Number     Number       Type             X           Y           Z
 ---------------------------------------------------------------------
      1          6           0        0.938983    0.777937    1.409268
      2          6           0        0.590079    1.145578   -0.068941
      3          7           0        1.069861    0.000003   -0.870985
      4          6           0        0.590085   -1.145569   -0.068945
      5          6           0        0.938954   -0.777937    1.409276
      6          6           0       -0.926687   -1.266787   -0.303302
      7          6           0       -1.673085   -0.000002    0.153283
      8          6           0       -0.926714    1.266801   -0.303305
      9          6           0        2.513785   -0.000010   -1.096676
     10          7           0       -3.039193   -0.000015   -0.394105
     11          1           0        1.087282    2.063805   -0.398523
     12          1           0        1.087305   -2.063792   -0.398515
     13          1           0       -1.322279    2.144167    0.227470
     14          1           0       -1.104237    1.413442   -1.374265
     15          1           0       -1.104230   -1.413426   -1.374258
     16          1           0       -1.322252   -2.144152    0.227472
     17          1           0       -1.686649   -0.000004    1.256826
     18          1           0        3.127622   -0.000010   -0.177646
     19          1           0        2.785451   -0.883843   -1.682779
     20          1           0        2.785468    0.883823   -1.682774
     21          1           0       -3.554271   -0.817990   -0.075264
     22          1           0       -3.554258    0.817981   -0.075293
     23          1           0        1.923723   -1.170929    1.681458
     24          1           0        0.220216   -1.201939    2.118166
     25          1           0        1.923753    1.170937    1.681432
     26          1           0        0.220277    1.201952    2.118178
 ---------------------------------------------------------------------

 SCF Done:  E(RHF) =  -421.280960054     A.U. after   12 cycles
 E2 =    -0.1796348870D+01 EUMP2 =    -0.42307730892447D+03

 The electronic state is 1-A.
 Alpha  occ. eigenvalues --  -15.53413 -15.53098 -11.24781 -11.24691 -11.24689
 Alpha  occ. eigenvalues --  -11.23824 -11.21698 -11.21643 -11.20939 -11.20938
 Alpha  occ. eigenvalues --   -1.23788  -1.17190  -1.04829  -1.01606  -0.99819
 Alpha  occ. eigenvalues --   -0.91040  -0.87185  -0.80589  -0.77606  -0.71851
 Alpha  occ. eigenvalues --   -0.66865  -0.65473  -0.63975  -0.61738  -0.58775
 Alpha  occ. eigenvalues --   -0.58211  -0.55271  -0.55160  -0.54198  -0.53732
 Alpha  occ. eigenvalues --   -0.50417  -0.49837  -0.46321  -0.46181  -0.44268
 Alpha  occ. eigenvalues --   -0.44173  -0.43126  -0.38171  -0.34928
 Alpha virt. eigenvalues --    0.13503   0.14221   0.16032   0.17004   0.17932
 Alpha virt. eigenvalues --    0.19147   0.19278   0.20271   0.21642   0.23639
 Alpha virt. eigenvalues --    0.23652   0.24400   0.25199   0.25550   0.27430

 Mulliken atomic charges:
              1
     1  C   -0.260698
     2  C    0.018714
     3  N   -0.260873
     4  C    0.018726
     5  C   -0.260698
     6  C   -0.188483
     7  C    0.025869
     8  C   -0.188482
     9  C   -0.192613
    10  N   -0.389287
    11  H    0.105487
    12  H    0.105485
    13  H    0.093996
    14  H    0.102984
    15  H    0.102982
    16  H    0.093993
    17  H    0.092446
    18  H    0.054777
    19  H    0.097510
    20  H    0.097509
    21  H    0.135779
    22  H    0.135779
    23  H    0.119378
    24  H    0.110170
    25  H    0.119381
    26  H    0.110168
 Sum of Mulliken atomic charges =   0.00000

 Dipole moment (field-independent basis, Debye):
    X=              0.2845    Y=              0.0000    Z=              1.9451  Tot=              1.9658
 Quadrupole moment (field-independent basis, Debye-Ang):
   XX=            -60.3689   YY=            -61.0864   ZZ=            -67.6973
   XY=             -0.0001   XZ=             -4.6983   YZ=             -0.0001

 Normal termination of Gaussian 09 at Sat Mar 19 21:31:03 2016.
