 Gaussian 09, Revision A.01,
 Gaussian 09:  EM64L-G09RevA.01  8-May-2009

 -------------
 # mp2/cc-pVTZ
 -------------

 ----------------------------------
 4_methylpiperidine_ax_single_point
 ----------------------------------
 Symbolic Z-matrix:
 Charge =  0 Multiplicity = 1

                         Standard orientation:
 ---------------------------------------------------------------------
 Center     Atomic      Atomic             Coordinates (Angstroms)
 Number     Number       Type             X           Y           Z
 ---------------------------------------------------------------------
      1          6           0        1.120712    0.000014    0.494475
      2          6           0        0.234903    1.261547    0.617098
      3          6           0       -0.981338    1.217554   -0.316501
      4          7           0       -1.755314   -0.000022   -0.055598
      5          6           0       -0.981305   -1.217574   -0.316492
      6          6           0        0.234937   -1.261526    0.617107
      7          6           0        1.975958    0.000007   -0.784629
      8          1           0       -2.611667   -0.000036   -0.601889
      9          1           0       -1.624862    2.084366   -0.129731
     10          1           0       -0.647306    1.282749   -1.370271
     11          1           0       -0.647256   -1.282759   -1.370257
     12          1           0       -1.624806   -2.084404   -0.129716
     13          1           0       -0.132958    1.341102    1.647768
     14          1           0        0.827778    2.162013    0.411124
     15          1           0        0.827837   -2.161978    0.411139
     16          1           0       -0.132922   -1.341067    1.647779
     17          1           0        1.817389    0.000026    1.344126
     18          1           0        2.621817    0.885160   -0.820683
     19          1           0        2.621831   -0.885140   -0.820643
     20          1           0        1.369128   -0.000004   -1.695903
 ---------------------------------------------------------------------

 SCF Done:  E(RHF) =  -289.319992238     A.U. after   11 cycles
 E2 =    -0.1254041067D+01 EUMP2 =    -0.29057403330452D+03

 The electronic state is 1-A.
 Alpha  occ. eigenvalues --  -15.53274 -11.24183 -11.24182 -11.22316 -11.21246
 Alpha  occ. eigenvalues --  -11.21244 -11.20955  -1.20198  -1.07054  -1.00590
 Alpha  occ. eigenvalues --   -0.93716  -0.83721  -0.83582  -0.72279  -0.67807
 Alpha  occ. eigenvalues --   -0.62739  -0.61326  -0.57531  -0.57030  -0.56643
 Alpha  occ. eigenvalues --   -0.52685  -0.50955  -0.50627  -0.48244  -0.45325
 Alpha  occ. eigenvalues --   -0.43442  -0.43114  -0.36038
 Alpha virt. eigenvalues --    0.13499   0.15737   0.16636   0.17015   0.19946
 Alpha virt. eigenvalues --    0.19975   0.20976   0.22043   0.22428   0.23695
 Alpha virt. eigenvalues --    0.24359   0.26879   0.28253   0.30495   0.32101

 Mulliken atomic charges:
              1
     1  C   -0.088834
     2  C   -0.182574
     3  C   -0.095803
     4  N   -0.292434
     5  C   -0.095803
     6  C   -0.182571
     7  C   -0.311056
     8  H    0.120445
     9  H    0.102827
    10  H    0.067441
    11  H    0.067441
    12  H    0.102827
    13  H    0.098467
    14  H    0.095892
    15  H    0.095891
    16  H    0.098466
    17  H    0.107940
    18  H    0.099925
    19  H    0.099924
    20  H    0.091588
 Sum of Mulliken atomic charges =   0.00000

 Dipole moment (field-independent basis, Debye):
    X=              0.1153    Y=              0.0000    Z=             -0.8191  Tot=              0.8271
 Quadrupole moment (field-independent basis, Debye-Ang):
   XX=            -45.8703   YY=            -45.1511   ZZ=            -46.8337
   XY=              0.0000   XZ=              2.8582   YZ=              0.0000

 Normal termination of Gaussian 09 at Sat Mar 19 23:31:57 2016.
