 Gaussian 09, Revision A.01,
 Gaussian 09:  EM64L-G09RevA.01  8-May-2009

 -------------
 # mp2/cc-pVTZ
 -------------

 ----------------------------------
 4_methylpiperidine_eq_single_point
 ----------------------------------
 Symbolic Z-matrix:
 Charge =  0 Multiplicity = 1

                         Standard orientation:
 ---------------------------------------------------------------------
 Center     Atomic      Atomic             Coordinates (Angstroms)
 Number     Number       Type             X           Y           Z
 ---------------------------------------------------------------------
      1          6           0       -1.012585    0.000004    0.330526
      2          6           0       -0.278491    1.259373   -0.166966
      3          6           0        1.212669    1.216811    0.184979
      4          7           0        1.815014   -0.000017   -0.364563
      5          6           0        1.212636   -1.216828    0.184978
      6          6           0       -0.278526   -1.259349   -0.166967
      7          6           0       -2.491452    0.000010   -0.072761
      8          1           0        2.819407   -0.000028   -0.213768
      9          1           0        1.729608    2.084008   -0.240562
     10          1           0        1.322125    1.275253    1.286974
     11          1           0        1.322090   -1.275274    1.286971
     12          1           0        1.729553   -2.084040   -0.240564
     13          1           0       -0.381578    1.332419   -1.258188
     14          1           0       -0.735428    2.158589    0.266333
     15          1           0       -0.735492   -2.158545    0.266347
     16          1           0       -0.381614   -1.332428   -1.258186
     17          1           0       -0.960675    0.000000    1.431482
     18          1           0       -3.009408   -0.885758    0.313449
     19          1           0       -3.009399    0.885789    0.313441
     20          1           0       -2.599796    0.000006   -1.164529
 ---------------------------------------------------------------------

 SCF Done:  E(RHF) =  -289.324228588     A.U. after   11 cycles
 E2 =    -0.1253053479D+01 EUMP2 =    -0.29057728206655D+03

 The electronic state is 1-A.
 Alpha  occ. eigenvalues --  -15.53341 -11.24263 -11.24261 -11.22233 -11.21234
 Alpha  occ. eigenvalues --  -11.21231 -11.20949  -1.20324  -1.07328  -1.00655
 Alpha  occ. eigenvalues --   -0.94019  -0.83867  -0.81936  -0.74771  -0.67561
 Alpha  occ. eigenvalues --   -0.60782  -0.60735  -0.60098  -0.57652  -0.54025
 Alpha  occ. eigenvalues --   -0.53053  -0.51905  -0.50440  -0.48264  -0.45450
 Alpha  occ. eigenvalues --   -0.43494  -0.43200  -0.36210
 Alpha virt. eigenvalues --    0.14112   0.15554   0.16475   0.16605   0.19274
 Alpha virt. eigenvalues --    0.20574   0.21122   0.22655   0.23011   0.23769
 Alpha virt. eigenvalues --    0.24072   0.25732   0.26313   0.30548   0.32176

 Mulliken atomic charges:
              1
     1  C   -0.077748
     2  C   -0.173654
     3  C   -0.089238
     4  N   -0.288916
     5  C   -0.089239
     6  C   -0.173650
     7  C   -0.302676
     8  H    0.119906
     9  H    0.098213
    10  H    0.062762
    11  H    0.062763
    12  H    0.098212
    13  H    0.087628
    14  H    0.098786
    15  H    0.098783
    16  H    0.087630
    17  H    0.096461
    18  H    0.097099
    19  H    0.097099
    20  H    0.089778
 Sum of Mulliken atomic charges =   0.00000

 Dipole moment (field-independent basis, Debye):
    X=              0.3207    Y=              0.0000    Z=              0.9018  Tot=              0.9572
 Quadrupole moment (field-independent basis, Debye-Ang):
   XX=            -44.5145   YY=            -45.1486   ZZ=            -47.8269
   XY=              0.0000   XZ=              1.3017   YZ=              0.0000

 Normal termination of Gaussian 09 at Sat Mar 19 23:46:51 2016.
