 Gaussian 09, Revision A.01,
 Gaussian 09:  EM64L-G09RevA.01  8-May-2009

 -------------
 # mp2/cc-pVTZ
 -------------

 ----------------------------------
 butanediamine_H+-gGGG_single_point
 ----------------------------------
 Symbolic Z-matrix:
 Charge =  1 Multiplicity = 1

                         Standard orientation:
 ---------------------------------------------------------------------
 Center     Atomic      Atomic             Coordinates (Angstroms)
 Number     Number       Type             X           Y           Z
 ---------------------------------------------------------------------
      1          6           0        1.660714    0.185477   -0.303674
      2          6           0        0.711384    1.245515    0.260386
      3          6           0       -0.744341    1.232845   -0.254869
      4          6           0       -1.671524    0.141908    0.294204
      5          7           0       -1.303178   -1.216819   -0.203716
      6          7           0        1.323225   -1.197173    0.201183
      7          1           0        2.695748    0.400471   -0.028139
      8          1           0        1.600863    0.141146   -1.394805
      9          1           0        1.875930   -1.916443   -0.270840
     10          1           0        1.517285   -1.276898    1.202473
     11          1           0        0.216304   -1.368289    0.028537
     12          1           0       -2.707283    0.378164    0.028180
     13          1           0       -1.617984    0.114495    1.388159
     14          1           0       -1.532790   -1.297097   -1.195330
     15          1           0       -1.861395   -1.929077    0.267137
     16          1           0        0.725182    1.208094    1.359050
     17          1           0        1.155201    2.211684   -0.003646
     18          1           0       -1.195438    2.193920    0.014409
     19          1           0       -0.749351    1.203304   -1.353736
 ---------------------------------------------------------------------

 SCF Done:  E(RHF) =  -267.835076588     A.U. after   12 cycles
 E2 =    -0.1140971107D+01 EUMP2 =    -0.26897604769451D+03

 The electronic state is 1-A.
 Alpha  occ. eigenvalues --  -15.81603 -15.73408 -11.44614 -11.41237 -11.38883
 Alpha  occ. eigenvalues --  -11.37783  -1.44047  -1.35903  -1.22096  -1.12821
 Alpha  occ. eigenvalues --   -1.03222  -0.95449  -0.91027  -0.89740  -0.83697
 Alpha  occ. eigenvalues --   -0.80867  -0.78645  -0.77109  -0.74075  -0.72109
 Alpha  occ. eigenvalues --   -0.68176  -0.64065  -0.63924  -0.62952  -0.58457
 Alpha virt. eigenvalues --   -0.03676   0.00129   0.00527   0.01430   0.04206
 Alpha virt. eigenvalues --    0.05136   0.06057   0.06840   0.08003   0.09043
 Alpha virt. eigenvalues --    0.09935   0.11273   0.12576   0.15905   0.17611

 Mulliken atomic charges:
              1
     1  C   -0.135306
     2  C   -0.224617
     3  C   -0.211196
     4  C   -0.115730
     5  N   -0.352067
     6  N   -0.081013
     7  H    0.168113
     8  H    0.153001
     9  H    0.192829
    10  H    0.181415
    11  H    0.233015
    12  H    0.148011
    13  H    0.133056
    14  H    0.171299
    15  H    0.184407
    16  H    0.125880
    17  H    0.156380
    18  H    0.151862
    19  H    0.120662
 Sum of Mulliken atomic charges =   1.00000

 Dipole moment (field-independent basis, Debye):
    X=              1.8147    Y=             -3.3239    Z=              0.1919  Tot=              3.7919
 Quadrupole moment (field-independent basis, Debye-Ang):
   XX=            -22.5214   YY=            -26.9484   ZZ=            -33.5822
   XY=             -1.8947   XZ=              1.1454   YZ=             -0.3989

 Normal termination of Gaussian 09 at Sun Mar 20 00:07:55 2016.
