 Gaussian 09, Revision A.01,
 Gaussian 09:  EM64L-G09RevA.01  8-May-2009

 -------------
 # mp2/cc-pVTZ
 -------------

 ----------------------------------
 butanediamine_H+_tTTT_single_point
 ----------------------------------
 Symbolic Z-matrix:
 Charge =  1 Multiplicity = 1

                         Standard orientation:
 ---------------------------------------------------------------------
 Center     Atomic      Atomic             Coordinates (Angstroms)
 Number     Number       Type             X           Y           Z
 ---------------------------------------------------------------------
      1          6           0        1.790032    0.573613    0.000009
      2          6           0        0.594063   -0.367807    0.000009
      3          6           0       -0.734759    0.412511    0.000000
      4          6           0       -1.960094   -0.532129    0.000000
      5          7           0       -3.261609    0.106450   -0.000007
      6          7           0        3.108102   -0.213598   -0.000008
      7          1           0        1.823260    1.207675    0.889060
      8          1           0        1.823257    1.207678   -0.889041
      9          1           0        3.173510   -0.818805   -0.825932
     10          1           0        3.926570    0.405055   -0.000025
     11          1           0        3.173529   -0.818807    0.825914
     12          1           0       -1.904948   -1.187573    0.878605
     13          1           0       -1.904933   -1.187594   -0.878587
     14          1           0       -3.437129    0.666451    0.827576
     15          1           0       -3.437111    0.666469   -0.827583
     16          1           0        0.632952   -1.018123   -0.884947
     17          1           0        0.632945   -1.018114    0.884973
     18          1           0       -0.781405    1.064307    0.882296
     19          1           0       -0.781406    1.064285   -0.882312
 ---------------------------------------------------------------------

 SCF Done:  E(RHF) =  -267.813703818     A.U. after   11 cycles
 E2 =    -0.1128038496D+01 EUMP2 =    -0.26894174231407D+03

 The electronic state is 1-A.
 Alpha  occ. eigenvalues --  -15.89157 -15.63415 -11.47929 -11.40056 -11.36505
 Alpha  occ. eigenvalues --  -11.36165  -1.50304  -1.28213  -1.23310  -1.11938
 Alpha  occ. eigenvalues --   -1.01972  -0.96596  -0.95932  -0.93116  -0.83941
 Alpha  occ. eigenvalues --   -0.81567  -0.77606  -0.73966  -0.71722  -0.69281
 Alpha  occ. eigenvalues --   -0.66687  -0.65342  -0.62762  -0.60101  -0.48444
 Alpha virt. eigenvalues --   -0.07501  -0.01168  -0.01140  -0.00070   0.04022
 Alpha virt. eigenvalues --    0.04687   0.04907   0.07135   0.08748   0.09527
 Alpha virt. eigenvalues --    0.10617   0.12332   0.13675   0.15480   0.16243

 Mulliken atomic charges:
              1
     1  C   -0.102481
     2  C   -0.220643
     3  C   -0.204013
     4  C   -0.052334
     5  N   -0.371150
     6  N    0.013509
     7  H    0.165682
     8  H    0.165680
     9  H    0.206174
    10  H    0.213768
    11  H    0.206174
    12  H    0.106587
    13  H    0.106588
    14  H    0.151727
    15  H    0.151726
    16  H    0.123344
    17  H    0.123345
    18  H    0.108159
    19  H    0.108158
 Sum of Mulliken atomic charges =   1.00000

 Dipole moment (field-independent basis, Debye):
    X=             12.4123    Y=              0.4195    Z=              0.0000  Tot=             12.4194
 Quadrupole moment (field-independent basis, Debye-Ang):
   XX=              1.5748   YY=            -34.8748   ZZ=            -33.4372
   XY=             -6.5427   XZ=             -0.0003   YZ=              0.0000

 Normal termination of Gaussian 09 at Sun Mar 20 00:16:58 2016.
