 Gaussian 09, Revision A.01,
 Gaussian 09:  EM64L-G09RevA.01  8-May-2009

 -------------
 # mp2/cc-pVTZ
 -------------

 -------------------------------
 butanediamine_gGGG_single_point
 -------------------------------
 Symbolic Z-matrix:
 Charge =  0 Multiplicity = 1

                         Standard orientation:
 ---------------------------------------------------------------------
 Center     Atomic      Atomic             Coordinates (Angstroms)
 Number     Number       Type             X           Y           Z
 ---------------------------------------------------------------------
      1          6           0        1.622896    0.167386   -0.380800
      2          6           0        0.670125    1.213046    0.222017
      3          6           0       -0.812085    1.176706   -0.204745
      4          6           0       -1.687747    0.034223    0.328423
      5          7           0       -1.438215   -1.233737   -0.362927
      6          7           0        1.513815   -1.146027    0.281554
      7          1           0        2.649081    0.567097   -0.334667
      8          1           0        1.384048    0.022709   -1.440941
      9          1           0        2.115321   -1.828614   -0.172958
     10          1           0        1.820281   -1.081574    1.249939
     11          1           0       -2.736096    0.306260    0.154212
     12          1           0       -1.558540   -0.026754    1.426189
     13          1           0       -2.120176   -1.933486   -0.083350
     14          1           0       -0.507044   -1.574910   -0.116270
     15          1           0        0.739312    1.165848    1.320011
     16          1           0        1.064742    2.199387   -0.055761
     17          1           0       -1.262633    2.119439    0.134990
     18          1           0       -0.876625    1.174774   -1.301155
 ---------------------------------------------------------------------

 SCF Done:  E(RHF) =  -267.438140418     A.U. after   12 cycles
 E2 =    -0.1140792495D+01 EUMP2 =    -0.26857893291259D+03

 The electronic state is 1-A.
 Alpha  occ. eigenvalues --  -15.54441 -15.50495 -11.25019 -11.23211 -11.21937
 Alpha  occ. eigenvalues --  -11.20979  -1.18040  -1.14650  -1.03341  -0.93366
 Alpha  occ. eigenvalues --   -0.83572  -0.76716  -0.66148  -0.65337  -0.61936
 Alpha  occ. eigenvalues --   -0.60813  -0.57912  -0.54969  -0.53272  -0.51323
 Alpha  occ. eigenvalues --   -0.46513  -0.46269  -0.45057  -0.39608  -0.36198
 Alpha virt. eigenvalues --    0.13657   0.15911   0.16504   0.17352   0.19998
 Alpha virt. eigenvalues --    0.21089   0.21389   0.22029   0.24093   0.25008
 Alpha virt. eigenvalues --    0.25999   0.29013   0.30731   0.34628   0.37074

 Mulliken atomic charges:
              1
     1  C   -0.062843
     2  C   -0.189416
     3  C   -0.179797
     4  C   -0.047448
     5  N   -0.415866
     6  N   -0.395981
     7  H    0.085210
     8  H    0.098199
     9  H    0.147584
    10  H    0.143891
    11  H    0.087678
    12  H    0.055238
    13  H    0.131305
    14  H    0.170583
    15  H    0.080761
    16  H    0.103285
    17  H    0.096215
    18  H    0.091402
 Sum of Mulliken atomic charges =   0.00000

 Dipole moment (field-independent basis, Debye):
    X=              1.8140    Y=              0.0657    Z=              1.2683  Tot=              2.2144
 Quadrupole moment (field-independent basis, Debye-Ang):
   XX=            -36.3192   YY=            -38.5334   ZZ=            -40.8010
   XY=             -1.9324   XZ=             -1.4222   YZ=             -1.5778

 Normal termination of Gaussian 09 at Sat Mar 19 23:56:37 2016.
