 Gaussian 09, Revision A.01,
 Gaussian 09:  EM64L-G09RevA.01  8-May-2009

 -------------
 # mp2/cc-pVTZ
 -------------

 --------------------------------
 butanediamine_tTTTt_single_point
 --------------------------------
 Symbolic Z-matrix:
 Charge =  0 Multiplicity = 1

                         Standard orientation:
 ---------------------------------------------------------------------
 Center     Atomic      Atomic             Coordinates (Angstroms)
 Number     Number       Type             X           Y           Z
 ---------------------------------------------------------------------
      1          6           0       -1.897853    0.538002   -0.000004
      2          6           0       -0.665366   -0.382614   -0.000010
      3          6           0        0.665377    0.382623   -0.000004
      4          6           0        1.897856   -0.537986    0.000014
      5          7           0        3.205184    0.124910   -0.000002
      6          7           0       -3.205194   -0.124930   -0.000010
      7          1           0       -1.860530    1.196122   -0.877524
      8          1           0       -1.860550    1.196083    0.877541
      9          1           0       -3.313497   -0.718900    0.818485
     10          1           0       -3.313386   -0.719105   -0.818371
     11          1           0        1.860516   -1.196113   -0.877503
     12          1           0        1.860516   -1.196108    0.877537
     13          1           0        3.313463    0.718993   -0.818421
     14          1           0        3.313469    0.718986    0.818422
     15          1           0       -0.711721   -1.041164    0.879983
     16          1           0       -0.711728   -1.041131   -0.880029
     17          1           0        0.711719    1.041166   -0.880008
     18          1           0        0.711710    1.041166    0.879998
 ---------------------------------------------------------------------

 SCF Done:  E(RHF) =  -267.442254544     A.U. after   12 cycles
 E2 =    -0.1136265593D+01 EUMP2 =    -0.26857852013698D+03

 The electronic state is 1-A.
 Alpha  occ. eigenvalues --  -15.53487 -15.53487 -11.24748 -11.24747 -11.22152
 Alpha  occ. eigenvalues --  -11.22092  -1.17460  -1.16972  -1.04483  -0.93233
 Alpha  occ. eigenvalues --   -0.83502  -0.79832  -0.68015  -0.66525  -0.60534
 Alpha  occ. eigenvalues --   -0.60483  -0.58620  -0.53913  -0.53646  -0.53246
 Alpha  occ. eigenvalues --   -0.48532  -0.47842  -0.46760  -0.39973  -0.37129
 Alpha virt. eigenvalues --    0.13701   0.14359   0.16061   0.16611   0.17349
 Alpha virt. eigenvalues --    0.19547   0.22255   0.22650   0.23675   0.24098
 Alpha virt. eigenvalues --    0.26768   0.28893   0.30632   0.31831   0.36623

 Mulliken atomic charges:
              1
     1  C   -0.050819
     2  C   -0.183898
     3  C   -0.183894
     4  C   -0.050812
     5  N   -0.380784
     6  N   -0.380791
     7  H    0.091864
     8  H    0.091863
     9  H    0.136273
    10  H    0.136272
    11  H    0.091859
    12  H    0.091861
    13  H    0.136272
    14  H    0.136270
    15  H    0.079617
    16  H    0.079616
    17  H    0.079616
    18  H    0.079614
 Sum of Mulliken atomic charges =   0.00000

 Dipole moment (field-independent basis, Debye):
    X=              0.0001    Y=              0.0000    Z=              0.0002  Tot=              0.0003
 Quadrupole moment (field-independent basis, Debye-Ang):
   XX=            -53.1454   YY=            -39.3618   ZZ=            -36.4521
   XY=              8.4162   XZ=             -0.0009   YZ=              0.0001

 Normal termination of Gaussian 09 at Sun Mar 20 00:25:28 2016.
