 Gaussian 09, Revision A.01,
 Gaussian 09:  EM64L-G09RevA.01  8-May-2009

 -------------
 # mp2/cc-pVTZ
 -------------

 ------------------------
 EtdiMeNH+_g_single_point
 ------------------------
 Symbolic Z-matrix:
 Charge =  1 Multiplicity = 1

                         Standard orientation:
 ---------------------------------------------------------------------
 Center     Atomic      Atomic             Coordinates (Angstroms)
 Number     Number       Type             X           Y           Z
 ---------------------------------------------------------------------
      1          6           0       -1.803415   -0.000010   -0.513622
      2          6           0       -0.921372    0.000002    0.725677
      3          7           0        0.583150   -0.000001    0.432586
      4          6           0        1.051631    1.246379   -0.272679
      5          6           0        1.051648   -1.246370   -0.272673
      6          1           0       -2.844166   -0.000024   -0.177197
      7          1           0       -1.666303    0.891639   -1.130082
      8          1           0       -1.666278   -0.891666   -1.130060
      9          1           0       -1.098025    0.885811    1.341206
     10          1           0       -1.098021   -0.885781    1.341235
     11          1           0        2.141300   -1.234686   -0.313815
     12          1           0        0.706961   -2.118690    0.283601
     13          1           0        0.644051   -1.257212   -1.282390
     14          1           0        1.035251    0.000007    1.351802
     15          1           0        0.706909    2.118693    0.283579
     16          1           0        0.644045    1.257184   -1.282404
     17          1           0        2.141277    1.234726   -0.313797
 ---------------------------------------------------------------------

 SCF Done:  E(RHF) =  -212.766824481     A.U. after   11 cycles
 E2 =    -0.9202641597D+00 EUMP2 =    -0.21368708864100D+03

 The electronic state is 1-A.
 Alpha  occ. eigenvalues --  -15.86931 -11.46336 -11.45741 -11.45740 -11.38906
 Alpha  occ. eigenvalues --   -1.49535  -1.21380  -1.17100  -1.11495  -1.01285
 Alpha  occ. eigenvalues --   -0.92541  -0.85586  -0.84824  -0.78354  -0.75499
 Alpha  occ. eigenvalues --   -0.74802  -0.73869  -0.73072  -0.70191  -0.68816
 Alpha  occ. eigenvalues --   -0.67694
 Alpha virt. eigenvalues --   -0.04656  -0.00584   0.00893   0.01639   0.03593
 Alpha virt. eigenvalues --    0.04349   0.04405   0.06901   0.07222   0.07962
 Alpha virt. eigenvalues --    0.09449   0.11541   0.12472   0.14962   0.15025

 Mulliken atomic charges:
              1
     1  C   -0.293543
     2  C   -0.132819
     3  N    0.020875
     4  C   -0.208025
     5  C   -0.208026
     6  H    0.155557
     7  H    0.123955
     8  H    0.123954
     9  H    0.162822
    10  H    0.162826
    11  H    0.159212
    12  H    0.156165
    13  H    0.149469
    14  H    0.162732
    15  H    0.156165
    16  H    0.149466
    17  H    0.159214
 Sum of Mulliken atomic charges =   1.00000

 Dipole moment (field-independent basis, Debye):
    X=              1.7303    Y=              0.0000    Z=              1.1415  Tot=              2.0729
 Quadrupole moment (field-independent basis, Debye-Ang):
   XX=            -23.0236   YY=            -25.8747   ZZ=            -27.4903
   XY=              0.0000   XZ=              0.2419   YZ=              0.0000

 Normal termination of Gaussian 09 at Sun Mar 20 00:37:00 2016.
