 Gaussian 09, Revision A.01,
 Gaussian 09:  EM64L-G09RevA.01  8-May-2009

 -------------
 # mp2/cc-pVTZ
 -------------

 ------------------------
 EtdiMeNH+_a_single_point
 ------------------------
 Symbolic Z-matrix:
 Charge =  1 Multiplicity = 1

                         Standard orientation:
 ---------------------------------------------------------------------
 Center     Atomic      Atomic             Coordinates (Angstroms)
 Number     Number       Type             X           Y           Z
 ---------------------------------------------------------------------
      1          6           0        2.078205   -0.020724   -0.136362
      2          6           0        0.773232   -0.649784    0.329296
      3          7           0       -0.462997   -0.002084   -0.290810
      4          6           0       -0.653178    1.431309    0.130595
      5          6           0       -1.701757   -0.816478   -0.023082
      6          1           0        2.903457   -0.613441    0.267986
      7          1           0        2.174572   -0.037514   -1.227524
      8          1           0        2.211833    1.003049    0.220293
      9          1           0        0.725120   -1.704066    0.046780
     10          1           0        0.639478   -0.577145    1.411825
     11          1           0       -2.550562   -0.346450   -0.520525
     12          1           0       -1.553296   -1.825842   -0.407469
     13          1           0       -1.869290   -0.846330    1.054284
     14          1           0       -0.314248   -0.000553   -1.305478
     15          1           0        0.222802    2.012314   -0.152258
     16          1           0       -0.789915    1.456057    1.212560
     17          1           0       -1.537984    1.828575   -0.367484
 ---------------------------------------------------------------------

 SCF Done:  E(RHF) =  -212.768560134     A.U. after   11 cycles
 E2 =    -0.9199046859D+00 EUMP2 =    -0.21368846482040D+03

 The electronic state is 1-A.
 Alpha  occ. eigenvalues --  -15.86937 -11.46260 -11.45797 -11.45722 -11.39009
 Alpha  occ. eigenvalues --   -1.49656  -1.21561  -1.17122  -1.10090  -1.03865
 Alpha  occ. eigenvalues --   -0.91182  -0.85879  -0.83877  -0.78812  -0.76154
 Alpha  occ. eigenvalues --   -0.74552  -0.73817  -0.73220  -0.69863  -0.69106
 Alpha  occ. eigenvalues --   -0.67790
 Alpha virt. eigenvalues --   -0.04272  -0.00391   0.00731   0.01344   0.02935
 Alpha virt. eigenvalues --    0.04259   0.05191   0.07650   0.07838   0.08339
 Alpha virt. eigenvalues --    0.09711   0.10342   0.11211   0.13845   0.14404

 Mulliken atomic charges:
              1
     1  C   -0.284636
     2  C   -0.117768
     3  N    0.020488
     4  C   -0.204095
     5  C   -0.194544
     6  H    0.152087
     7  H    0.118789
     8  H    0.122404
     9  H    0.155951
    10  H    0.153111
    11  H    0.154349
    12  H    0.153800
    13  H    0.150364
    14  H    0.155610
    15  H    0.157993
    16  H    0.149722
    17  H    0.156374
 Sum of Mulliken atomic charges =   1.00000

 Dipole moment (field-independent basis, Debye):
    X=             -1.4811    Y=             -0.0162    Z=             -0.6678  Tot=              1.6248
 Quadrupole moment (field-independent basis, Debye-Ang):
   XX=            -22.3070   YY=            -25.9489   ZZ=            -28.3144
   XY=             -0.1905   XZ=              0.6700   YZ=              0.1024

 Normal termination of Gaussian 09 at Sun Mar 20 00:31:10 2016.
