 Gaussian 09, Revision A.01,
 Gaussian 09:  EM64L-G09RevA.01  8-May-2009

 -------------
 # mp2/cc-pVTZ
 -------------

 ------------------------------
 ethanediamine_tTt_single_point
 ------------------------------
 Symbolic Z-matrix:
 Charge =  0 Multiplicity = 1

                         Standard orientation:
 ---------------------------------------------------------------------
 Center     Atomic      Atomic             Coordinates (Angstroms)
 Number     Number       Type             X           Y           Z
 ---------------------------------------------------------------------
      1          6           0        0.577044    0.494078    0.090749
      2          7           0        1.864783   -0.182070   -0.111565
      3          6           0       -0.577043   -0.494104   -0.090764
      4          7           0       -1.864791    0.182067    0.111606
      5          1           0        0.494406    1.282751   -0.668336
      6          1           0        0.468338    0.980471    1.072689
      7          1           0       -0.468373   -0.980480   -1.072715
      8          1           0       -0.494421   -1.282785    0.668314
      9          1           0       -2.058723    0.828377   -0.649370
     10          1           0       -2.629122   -0.486005    0.139322
     11          1           0        2.629087    0.486013   -0.139644
     12          1           0        2.058856   -0.828169    0.649545
 ---------------------------------------------------------------------

 SCF Done:  E(RHF) =  -189.347380665     A.U. after   11 cycles
 E2 =    -0.7867909384D+00 EUMP2 =    -0.19013417160303D+03

 The electronic state is 1-A.
 Alpha  occ. eigenvalues --  -15.53398 -15.53398 -11.24300 -11.24239  -1.18361
 Alpha  occ. eigenvalues --   -1.15176  -0.94601  -0.80901  -0.66100  -0.65100
 Alpha  occ. eigenvalues --   -0.63839  -0.55712  -0.55366  -0.51758  -0.47791
 Alpha  occ. eigenvalues --   -0.38889  -0.38500
 Alpha virt. eigenvalues --    0.14381   0.14786   0.17064   0.20495   0.20768
 Alpha virt. eigenvalues --    0.22167   0.25029   0.25846   0.32770   0.33196
 Alpha virt. eigenvalues --    0.40475   0.43130   0.45730   0.49201   0.49568

 Mulliken atomic charges:
              1
     1  C   -0.043978
     2  N   -0.388755
     3  C   -0.043961
     4  N   -0.388747
     5  H    0.073779
     6  H    0.074831
     7  H    0.074828
     8  H    0.073781
     9  H    0.140263
    10  H    0.143839
    11  H    0.143847
    12  H    0.140273
 Sum of Mulliken atomic charges =   0.00000

 Dipole moment (field-independent basis, Debye):
    X=              0.0003    Y=              0.0003    Z=             -0.0003  Tot=              0.0005
 Quadrupole moment (field-independent basis, Debye-Ang):
   XX=            -23.4447   YY=            -25.8724   ZZ=            -27.5977
   XY=              2.9079   XZ=              4.8060   YZ=             -3.0530

 Normal termination of Gaussian 09 at Sun Mar 20 00:46:25 2016.
