 Gaussian 09, Revision A.01,
 Gaussian 09:  EM64L-G09RevA.01  8-May-2009

 -------------
 # mp2/cc-pVTZ
 -------------

 -------------------------------
 ethanediamineH+_Gg_single_point
 -------------------------------
 Symbolic Z-matrix:
 Charge =  1 Multiplicity = 1

                         Standard orientation:
 ---------------------------------------------------------------------
 Center     Atomic      Atomic             Coordinates (Angstroms)
 Number     Number       Type             X           Y           Z
 ---------------------------------------------------------------------
      1          6           0        0.771932    0.672232    0.240001
      2          7           0        1.295847   -0.652607   -0.127526
      3          6           0       -0.694541    0.742442   -0.231403
      4          7           0       -1.309919   -0.598623    0.107369
      5          1           0        1.322706    1.512879   -0.194470
      6          1           0        0.818924    0.778987    1.328272
      7          1           0       -1.264311    1.542947    0.241563
      8          1           0       -0.759301    0.847277   -1.316684
      9          1           0       -1.642224   -0.648631    1.074321
     10          1           0        1.999654   -0.984037    0.525851
     11          1           0       -2.078848   -0.868435   -0.509934
     12          1           0        1.717214   -0.661359   -1.053753
     13          1           0       -0.479661   -1.249062   -0.005660
 ---------------------------------------------------------------------

 SCF Done:  E(RHF) =  -189.728414998     A.U. after   11 cycles
 E2 =    -0.7855211736D+00 EUMP2 =    -0.19051393617115D+03

 The electronic state is 1-A.
 Alpha  occ. eigenvalues --  -15.86266 -15.72847 -11.47264 -11.44211  -1.48587
 Alpha  occ. eigenvalues --   -1.35979  -1.18019  -1.02796  -0.95186  -0.94473
 Alpha  occ. eigenvalues --   -0.85841  -0.82204  -0.78340  -0.76362  -0.71552
 Alpha  occ. eigenvalues --   -0.68740  -0.59218
 Alpha virt. eigenvalues --   -0.05675  -0.00874  -0.00475   0.00672   0.04312
 Alpha virt. eigenvalues --    0.04942   0.06613   0.08512   0.09637   0.11701
 Alpha virt. eigenvalues --    0.12850   0.17711   0.20859   0.23680   0.23970

 Mulliken atomic charges:
              1
     1  C   -0.096527
     2  N   -0.413829
     3  C   -0.121002
     4  N    0.006396
     5  H    0.148460
     6  H    0.141441
     7  H    0.169262
     8  H    0.158298
     9  H    0.196383
    10  H    0.198032
    11  H    0.209473
    12  H    0.186602
    13  H    0.217011
 Sum of Mulliken atomic charges =   1.00000

 Dipole moment (field-independent basis, Debye):
    X=             -2.7183    Y=             -0.9083    Z=              0.2445  Tot=              2.8764
 Quadrupole moment (field-independent basis, Debye-Ang):
   XX=            -11.0087   YY=            -20.9305   ZZ=            -20.3682
   XY=              1.9721   XZ=             -0.7112   YZ=             -0.4590

 Normal termination of Gaussian 09 at Sun Mar 20 00:40:26 2016.
