 Gaussian 09, Revision A.01,
 Gaussian 09:  EM64L-G09RevA.01  8-May-2009

 -------------
 # mp2/cc-pVTZ
 -------------

 -------------------------------
 ethanediamineH+_Tg_single_point
 -------------------------------
 Symbolic Z-matrix:
 Charge =  1 Multiplicity = 1

                         Standard orientation:
 ---------------------------------------------------------------------
 Center     Atomic      Atomic             Coordinates (Angstroms)
 Number     Number       Type             X           Y           Z
 ---------------------------------------------------------------------
      1          6           0        0.470769   -0.534921   -0.056354
      2          7           0        1.854736    0.118652    0.018143
      3          6           0       -0.646783    0.514504    0.028271
      4          7           0       -1.907592   -0.200376   -0.032989
      5          1           0        0.422534   -1.244994    0.771746
      6          1           0        0.427600   -1.082088   -0.999102
      7          1           0       -0.519390    1.124813    0.937841
      8          1           0       -0.572141    1.194240   -0.828653
      9          1           0       -2.301514   -0.407554    0.877948
     10          1           0        2.604189   -0.580173   -0.023193
     11          1           0       -2.606896    0.269537   -0.595075
     12          1           0        1.971704    0.647712    0.889554
     13          1           0        1.999984    0.773080   -0.758643
 ---------------------------------------------------------------------

 SCF Done:  E(RHF) =  -189.717578896     A.U. after   11 cycles
 E2 =    -0.7789404028D+00 EUMP2 =    -0.19049651929875D+03

 The electronic state is 1-A.
 Alpha  occ. eigenvalues --  -15.89302 -15.68965 -11.47483 -11.43540  -1.50473
 Alpha  occ. eigenvalues --   -1.33889  -1.17592  -1.03091  -0.96747  -0.95067
 Alpha  occ. eigenvalues --   -0.85415  -0.83704  -0.76685  -0.75015  -0.72148
 Alpha  occ. eigenvalues --   -0.67480  -0.54694
 Alpha virt. eigenvalues --   -0.07673  -0.01306  -0.01257  -0.00209   0.03751
 Alpha virt. eigenvalues --    0.05164   0.06465   0.06929   0.11460   0.12591
 Alpha virt. eigenvalues --    0.14188   0.17720   0.22115   0.22632   0.24693

 Mulliken atomic charges:
              1
     1  C   -0.089220
     2  N    0.007803
     3  C   -0.078852
     4  N   -0.387633
     5  H    0.158115
     6  H    0.165213
     7  H    0.110397
     8  H    0.122648
     9  H    0.177182
    10  H    0.215490
    11  H    0.187711
    12  H    0.205121
    13  H    0.206027
 Sum of Mulliken atomic charges =   1.00000

 Dipole moment (field-independent basis, Debye):
    X=              5.9809    Y=              1.2569    Z=              0.5313  Tot=              6.1346
 Quadrupole moment (field-independent basis, Debye-Ang):
   XX=             -3.4472   YY=            -23.0622   ZZ=            -21.0563
   XY=             -1.0875   XZ=             -0.8063   YZ=             -1.2922

 Normal termination of Gaussian 09 at Sun Mar 20 00:43:49 2016.
