 Gaussian 09, Revision A.01,
 Gaussian 09:  EM64L-G09RevA.01  8-May-2009

 -------------
 # mp2/cc-pVTZ
 -------------

 -------------------------------------
 ethylenediamine_g+_g+_g+_single_point
 -------------------------------------
 Symbolic Z-matrix:
 Charge =  0 Multiplicity = 1

                         Standard orientation:
 ---------------------------------------------------------------------
 Center     Atomic      Atomic             Coordinates (Angstroms)
 Number     Number       Type             X           Y           Z
 ---------------------------------------------------------------------
      1          6           0       -0.721792    0.623646   -0.251734
      2          7           0       -1.423579   -0.586639    0.201639
      3          6           0        0.721715    0.623632    0.251774
      4          7           0        1.423567   -0.586602   -0.201634
      5          1           0       -1.239622    1.494973    0.165940
      6          1           0       -0.715275    0.730777   -1.348468
      7          1           0        1.239529    1.495012   -0.165803
      8          1           0        0.715198    0.730679    1.348510
      9          1           0       -2.429596   -0.481444    0.112205
     10          1           0       -1.155796   -1.380021   -0.375072
     11          1           0        2.429616   -0.481042   -0.113072
     12          1           0        1.156488   -1.379909    0.375483
 ---------------------------------------------------------------------

 SCF Done:  E(RHF) =  -189.347934095     A.U. after   11 cycles
 E2 =    -0.7881373590D+00 EUMP2 =    -0.19013607145384D+03

 The electronic state is 1-A.
 Alpha  occ. eigenvalues --  -15.53205 -15.53204 -11.24223 -11.24161  -1.18693
 Alpha  occ. eigenvalues --   -1.14339  -0.95190  -0.79800  -0.67838  -0.65459
 Alpha  occ. eigenvalues --   -0.60061  -0.59337  -0.53422  -0.50541  -0.48647
 Alpha  occ. eigenvalues --   -0.40056  -0.37432
 Alpha virt. eigenvalues --    0.14153   0.16721   0.16894   0.19410   0.21041
 Alpha virt. eigenvalues --    0.22138   0.25163   0.25530   0.34152   0.34365
 Alpha virt. eigenvalues --    0.36311   0.40629   0.47754   0.48907   0.49678

 Mulliken atomic charges:
              1
     1  C   -0.036823
     2  N   -0.408519
     3  C   -0.036920
     4  N   -0.408551
     5  H    0.081541
     6  H    0.067168
     7  H    0.081550
     8  H    0.067205
     9  H    0.144942
    10  H    0.151711
    11  H    0.144963
    12  H    0.151734
 Sum of Mulliken atomic charges =   0.00000

 Dipole moment (field-independent basis, Debye):
    X=              0.0011    Y=              0.3408    Z=             -0.0005  Tot=              0.3408
 Quadrupole moment (field-independent basis, Debye-Ang):
   XX=            -22.0060   YY=            -24.9394   ZZ=            -29.3187
   XY=             -0.0002   XZ=              2.8851   YZ=             -0.0005

 Normal termination of Gaussian 09 at Sun Mar 20 00:54:09 2016.
