 Gaussian 09, Revision A.01,
 Gaussian 09:  EM64L-G09RevA.01  8-May-2009

 -------------
 # mp2/cc-pVTZ
 -------------

 ------------------------------------
 ethylenediamine_a_g+_g+_single_point
 ------------------------------------
 Symbolic Z-matrix:
 Charge =  0 Multiplicity = 1

                         Standard orientation:
 ---------------------------------------------------------------------
 Center     Atomic      Atomic             Coordinates (Angstroms)
 Number     Number       Type             X           Y           Z
 ---------------------------------------------------------------------
      1          6           0        0.577574    0.500945   -0.042849
      2          7           0        1.864243   -0.203216   -0.036021
      3          6           0       -0.577574   -0.500947   -0.042849
      4          7           0       -1.864244    0.203215   -0.036023
      5          1           0        0.516500    1.103117   -0.954974
      6          1           0        0.448588    1.196501    0.806772
      7          1           0       -0.516499   -1.103119   -0.954972
      8          1           0       -0.448589   -1.196500    0.806773
      9          1           0        2.635476    0.436619   -0.199179
     10          1           0        2.031715   -0.660174    0.856622
     11          1           0       -2.635478   -0.436623   -0.199164
     12          1           0       -2.031709    0.660189    0.856616
 ---------------------------------------------------------------------

 SCF Done:  E(RHF) =  -189.347315845     A.U. after   11 cycles
 E2 =    -0.7867414633D+00 EUMP2 =    -0.19013405730811D+03

 The electronic state is 1-A.
 Alpha  occ. eigenvalues --  -15.53384 -15.53384 -11.24318 -11.24257  -1.18392
 Alpha  occ. eigenvalues --   -1.15196  -0.94615  -0.80848  -0.67398  -0.64584
 Alpha  occ. eigenvalues --   -0.61176  -0.60013  -0.53820  -0.49594  -0.49465
 Alpha  occ. eigenvalues --   -0.39040  -0.38166
 Alpha virt. eigenvalues --    0.14166   0.14983   0.18063   0.18414   0.20909
 Alpha virt. eigenvalues --    0.23625   0.24815   0.25422   0.33096   0.33509
 Alpha virt. eigenvalues --    0.40148   0.43065   0.45898   0.47029   0.50718

 Mulliken atomic charges:
              1
     1  C   -0.039207
     2  N   -0.389643
     3  C   -0.039207
     4  N   -0.389644
     5  H    0.093143
     6  H    0.051794
     7  H    0.093144
     8  H    0.051794
     9  H    0.145119
    10  H    0.138794
    11  H    0.145119
    12  H    0.138794
 Sum of Mulliken atomic charges =   0.00000

 Dipole moment (field-independent basis, Debye):
    X=              0.0000    Y=              0.0000    Z=              1.7899  Tot=              1.7899
 Quadrupole moment (field-independent basis, Debye-Ang):
   XX=            -23.6115   YY=            -27.3572   ZZ=            -25.9984
   XY=              3.9913   XZ=              0.0000   YZ=              0.0000

 Normal termination of Gaussian 09 at Sun Mar 20 00:51:33 2016.
