 Gaussian 09, Revision A.01,
 Gaussian 09:  EM64L-G09RevA.01  8-May-2009

 -------------
 # mp2/cc-pVTZ
 -------------

 -------------------------
 ethylamine_g_single_point
 -------------------------
 Symbolic Z-matrix:
 Charge =  0 Multiplicity = 1

                         Standard orientation:
 ---------------------------------------------------------------------
 Center     Atomic      Atomic             Coordinates (Angstroms)
 Number     Number       Type             X           Y           Z
 ---------------------------------------------------------------------
      1          6           0        1.250033   -0.239656   -0.029524
      2          6           0       -0.047293    0.562064    0.056294
      3          7           0       -1.210580   -0.319690   -0.114158
      4          1           0       -0.074791    1.300389   -0.753750
      5          1           0       -0.063053    1.128311    1.003760
      6          1           0        2.121882    0.416753    0.065592
      7          1           0        1.306196   -0.983689    0.774855
      8          1           0       -1.264658   -0.997104    0.642720
      9          1           0        1.310304   -0.770418   -0.984659
     10          1           0       -2.078258    0.209137   -0.110032
 ---------------------------------------------------------------------

 SCF Done:  E(RHF) =  -134.303533133     A.U. after   12 cycles
 E2 =    -0.5785970809D+00 EUMP2 =    -0.13488213021363D+03

 The electronic state is 1-A.
 Alpha  occ. eigenvalues --  -15.53262 -11.24706 -11.21082  -1.16859  -0.98374
 Alpha  occ. eigenvalues --   -0.81971  -0.65590  -0.62653  -0.57776  -0.51381
 Alpha  occ. eigenvalues --   -0.50612  -0.48651  -0.38532
 Alpha virt. eigenvalues --    0.13956   0.17253   0.18047   0.20196   0.22234
 Alpha virt. eigenvalues --    0.24090   0.24788   0.31998   0.34545   0.38927
 Alpha virt. eigenvalues --    0.40496   0.45997   0.48440   0.50625   0.55985

 Mulliken atomic charges:
              1
     1  C   -0.270161
     2  C   -0.032878
     3  N   -0.383971
     4  H    0.082334
     5  H    0.059606
     6  H    0.086892
     7  H    0.078030
     8  H    0.139775
     9  H    0.098823
    10  H    0.141550
 Sum of Mulliken atomic charges =   0.00000

 Dipole moment (field-independent basis, Debye):
    X=             -0.2052    Y=              0.6171    Z=              1.0989  Tot=              1.2769
 Quadrupole moment (field-independent basis, Debye-Ang):
   XX=            -19.4554   YY=            -20.7481   ZZ=            -21.3307
   XY=             -0.7056   XZ=             -1.4950   YZ=             -1.7042

 Normal termination of Gaussian 09 at Sun Mar 20 00:48:56 2016.
