 Gaussian 09, Revision A.01,
 Gaussian 09:  EM64L-G09RevA.01  8-May-2009

 -------------
 # mp2/cc-pVTZ
 -------------

 -------------------------
 ethylamine_a_single_point
 -------------------------
 Symbolic Z-matrix:
 Charge =  0 Multiplicity = 1

                         Standard orientation:
 ---------------------------------------------------------------------
 Center     Atomic      Atomic             Coordinates (Angstroms)
 Number     Number       Type             X           Y           Z
 ---------------------------------------------------------------------
      1          6           0        1.245333   -0.264950    0.000015
      2          6           0       -0.042649    0.570423   -0.000019
      3          7           0       -1.300457   -0.183311   -0.000023
      4          1           0       -0.053793    1.229085   -0.876838
      5          1           0       -0.053838    1.229096    0.876791
      6          1           0        2.134412    0.377831   -0.000002
      7          1           0        1.296479   -0.909377    0.886077
      8          1           0       -1.366221   -0.783591   -0.818429
      9          1           0        1.296471   -0.909430   -0.886007
     10          1           0       -1.366413   -0.783277    0.818595
 ---------------------------------------------------------------------

 SCF Done:  E(RHF) =  -134.303364617     A.U. after   12 cycles
 E2 =    -0.5787641156D+00 EUMP2 =    -0.13488212873285D+03

 The electronic state is 1-A.
 Alpha  occ. eigenvalues --  -15.53297 -11.24723 -11.21444  -1.16955  -0.98345
 Alpha  occ. eigenvalues --   -0.82753  -0.66764  -0.59457  -0.56738  -0.56113
 Alpha  occ. eigenvalues --   -0.50421  -0.48087  -0.38475
 Alpha virt. eigenvalues --    0.13734   0.17563   0.18226   0.18794   0.22656
 Alpha virt. eigenvalues --    0.23591   0.25495   0.31086   0.35842   0.38518
 Alpha virt. eigenvalues --    0.39993   0.46769   0.47089   0.49986   0.53877

 Mulliken atomic charges:
              1
     1  C   -0.267866
     2  C   -0.050833
     3  N   -0.378226
     4  H    0.089085
     5  H    0.089083
     6  H    0.086699
     7  H    0.079049
     8  H    0.136979
     9  H    0.079048
    10  H    0.136982
 Sum of Mulliken atomic charges =   0.00000

 Dipole moment (field-independent basis, Debye):
    X=              0.9643    Y=             -0.8491    Z=              0.0003  Tot=              1.2849
 Quadrupole moment (field-independent basis, Debye-Ang):
   XX=            -24.3669   YY=            -20.1364   ZZ=            -19.1466
   XY=              2.3360   XZ=             -0.0008   YZ=              0.0003

 Normal termination of Gaussian 09 at Sun Mar 20 00:47:43 2016.
