 Gaussian 09, Revision A.01,
 Gaussian 09:  EM64L-G09RevA.01  8-May-2009

 -------------
 # mp2/cc-pVTZ
 -------------

 -----------------------
 EtMeNH2+_g_single_point
 -----------------------
 Symbolic Z-matrix:
 Charge =  1 Multiplicity = 1

                         Standard orientation:
 ---------------------------------------------------------------------
 Center     Atomic      Atomic             Coordinates (Angstroms)
 Number     Number       Type             X           Y           Z
 ---------------------------------------------------------------------
      1          6           0        1.589115   -0.554832   -0.124393
      2          6           0        0.720888    0.609754    0.323880
      3          7           0       -0.675198    0.567782   -0.297893
      4          6           0       -1.556557   -0.575517    0.138520
      5          1           0        2.589207   -0.415911    0.295432
      6          1           0        1.221191   -1.520090    0.231545
      7          1           0        1.697504   -0.588626   -1.213795
      8          1           0        0.566823    0.624698    1.405536
      9          1           0        1.147222    1.569020    0.019747
     10          1           0       -1.152056    1.449238   -0.082135
     11          1           0       -2.533663   -0.460385   -0.331692
     12          1           0       -1.100050   -1.513331   -0.172304
     13          1           0       -1.652572   -0.540302    1.223856
     14          1           0       -0.577890    0.544783   -1.318982
 ---------------------------------------------------------------------

 SCF Done:  E(RHF) =  -173.721394412     A.U. after   11 cycles
 E2 =    -0.7437732528D+00 EUMP2 =    -0.17446516766462D+03

 The electronic state is 1-A.
 Alpha  occ. eigenvalues --  -15.88083 -11.47427 -11.46931 -11.39664  -1.50078
 Alpha  occ. eigenvalues --   -1.22018  -1.14765  -1.04390  -0.95920  -0.89460
 Alpha  occ. eigenvalues --   -0.83478  -0.78872  -0.76093  -0.75370  -0.71562
 Alpha  occ. eigenvalues --   -0.70173  -0.68586
 Alpha virt. eigenvalues --   -0.06136  -0.01189  -0.00635   0.00770   0.03277
 Alpha virt. eigenvalues --    0.04244   0.06412   0.07441   0.07630   0.08649
 Alpha virt. eigenvalues --    0.11344   0.13649   0.16805   0.19116   0.20935

 Mulliken atomic charges:
              1
     1  C   -0.281574
     2  C   -0.118226
     3  N    0.025424
     4  C   -0.183936
     5  H    0.153832
     6  H    0.123176
     7  H    0.120210
     8  H    0.159092
     9  H    0.163766
    10  H    0.190239
    11  H    0.161213
    12  H    0.153393
    13  H    0.151941
    14  H    0.181448
 Sum of Mulliken atomic charges =   1.00000

 Dipole moment (field-independent basis, Debye):
    X=             -2.1263    Y=              1.5906    Z=             -0.7302  Tot=              2.7540
 Quadrupole moment (field-independent basis, Debye-Ang):
   XX=            -16.3246   YY=            -20.5067   ZZ=            -22.0892
   XY=             -0.6458   XZ=              0.8084   YZ=             -0.7153

 Normal termination of Gaussian 09 at Sun Mar 20 01:02:17 2016.
