 Gaussian 09, Revision A.01,
 Gaussian 09:  EM64L-G09RevA.01  8-May-2009

 -------------
 # mp2/cc-pVTZ
 -------------

 -----------------------
 EtMeNH2+_a_single_point
 -----------------------
 Symbolic Z-matrix:
 Charge =  1 Multiplicity = 1

                         Standard orientation:
 ---------------------------------------------------------------------
 Center     Atomic      Atomic             Coordinates (Angstroms)
 Number     Number       Type             X           Y           Z
 ---------------------------------------------------------------------
      1          6           0       -1.945507   -0.139463    0.000000
      2          6           0       -0.590120    0.549962    0.000001
      3          7           0        0.543395   -0.467675    0.000000
      4          6           0        1.930240    0.122762    0.000000
      5          1           0       -2.727289    0.624821    0.000001
      6          1           0       -2.093156   -0.756657   -0.892206
      7          1           0       -2.093156   -0.756661    0.892203
      8          1           0       -0.438869    1.169087   -0.887388
      9          1           0       -0.438869    1.169082    0.887391
     10          1           0        0.434893   -1.078856    0.816791
     11          1           0        2.659320   -0.688089   -0.000019
     12          1           0        2.045377    0.735154   -0.894236
     13          1           0        2.045407    0.735125    0.894250
     14          1           0        0.434893   -1.078851   -0.816792
 ---------------------------------------------------------------------

 SCF Done:  E(RHF) =  -173.723361917     A.U. after   11 cycles
 E2 =    -0.7431217210D+00 EUMP2 =    -0.17446648363829D+03

 The electronic state is 1-A.
 Alpha  occ. eigenvalues --  -15.88080 -11.47347 -11.46983 -11.39690  -1.50208
 Alpha  occ. eigenvalues --   -1.22272  -1.13826  -1.05336  -0.96978  -0.86460
 Alpha  occ. eigenvalues --   -0.84473  -0.79740  -0.75882  -0.75656  -0.71063
 Alpha  occ. eigenvalues --   -0.70261  -0.68828
 Alpha virt. eigenvalues --   -0.06042  -0.01110  -0.00595  -0.00110   0.04146
 Alpha virt. eigenvalues --    0.04446   0.05566   0.07980   0.08422   0.09316
 Alpha virt. eigenvalues --    0.10165   0.13537   0.14484   0.20310   0.20353

 Mulliken atomic charges:
              1
     1  C   -0.271389
     2  C   -0.108735
     3  N    0.023653
     4  C   -0.173677
     5  H    0.148802
     6  H    0.119846
     7  H    0.119846
     8  H    0.156121
     9  H    0.156122
    10  H    0.183622
    11  H    0.158378
    12  H    0.151894
    13  H    0.151897
    14  H    0.183621
 Sum of Mulliken atomic charges =   1.00000

 Dipole moment (field-independent basis, Debye):
    X=              1.8776    Y=             -1.1552    Z=              0.0000  Tot=              2.2045
 Quadrupole moment (field-independent basis, Debye-Ang):
   XX=            -15.3110   YY=            -21.4415   ZZ=            -22.5089
   XY=             -1.1662   XZ=              0.0000   YZ=              0.0000

 Normal termination of Gaussian 09 at Sun Mar 20 00:58:14 2016.
