 Gaussian 09, Revision A.01,
 Gaussian 09:  EM64L-G09RevA.01  8-May-2009

 -------------
 # mp2/cc-pVTZ
 -------------

 --------------------------
 formamidine_t_single_point
 --------------------------
 Symbolic Z-matrix:
 Charge =  0 Multiplicity = 1

                         Standard orientation:
 ---------------------------------------------------------------------
 Center     Atomic      Atomic             Coordinates (Angstroms)
 Number     Number       Type             X           Y           Z
 ---------------------------------------------------------------------
      1          6           0        0.000000    0.411172    0.000000
      2          7           0       -1.036084   -0.478594    0.000000
      3          7           0        1.223921    0.032920    0.000000
      4          1           0       -0.335657    1.456291    0.000000
      5          1           0        1.848041    0.837161    0.000000
      6          1           0       -1.993712   -0.173423    0.000000
      7          1           0       -0.833532   -1.467344    0.000000
 ---------------------------------------------------------------------

 SCF Done:  E(RHF) =  -149.139646367     A.U. after   13 cycles
 E2 =    -0.5814560921D+00 EUMP2 =    -0.14972110245944D+03

 The electronic state is 1-A'.
 Alpha  occ. eigenvalues --  -15.57032 -15.51503 -11.31184  -1.24862  -1.13226
 Alpha  occ. eigenvalues --   -0.82355  -0.73755  -0.63024  -0.61591  -0.52223
 Alpha  occ. eigenvalues --   -0.41580  -0.35768
 Alpha virt. eigenvalues --    0.13736   0.16202   0.19290   0.19473   0.22295
 Alpha virt. eigenvalues --    0.35579   0.37266   0.45802   0.46974   0.50787
 Alpha virt. eigenvalues --    0.54715   0.57252   0.61525   0.66323   0.67974

 Mulliken atomic charges:
              1
     1  C    0.084524
     2  N   -0.313941
     3  N   -0.392551
     4  H    0.089572
     5  H    0.153007
     6  H    0.186952
     7  H    0.192437
 Sum of Mulliken atomic charges =   0.00000

 Dipole moment (field-independent basis, Debye):
    X=             -2.7581    Y=              1.3160    Z=              0.0000  Tot=              3.0560
 Quadrupole moment (field-independent basis, Debye-Ang):
   XX=            -16.7464   YY=            -15.2156   ZZ=            -20.8724
   XY=              2.8821   XZ=              0.0000   YZ=              0.0000

 Normal termination of Gaussian 09 at Sun Mar 20 01:03:17 2016.
