 Gaussian 09, Revision A.01,
 Gaussian 09:  EM64L-G09RevA.01  8-May-2009

 -------------
 # mp2/cc-pVTZ
 -------------

 ----------------------------
 formamidine_cis_single_point
 ----------------------------
 Symbolic Z-matrix:
 Charge =  0 Multiplicity = 1

                         Standard orientation:
 ---------------------------------------------------------------------
 Center     Atomic      Atomic             Coordinates (Angstroms)
 Number     Number       Type             X           Y           Z
 ---------------------------------------------------------------------
      1          6           0       -0.122176    0.420599    0.000018
      2          7           0        1.116260   -0.177022   -0.000075
      3          7           0       -1.281005   -0.121074    0.000006
      4          1           0       -0.063372    1.511620   -0.000009
      5          1           0       -1.221959   -1.144238   -0.000005
      6          1           0        1.957436    0.376722    0.000219
      7          1           0        1.214169   -1.181020    0.000177
 ---------------------------------------------------------------------

 SCF Done:  E(RHF) =  -149.136779313     A.U. after   12 cycles
 E2 =    -0.5815923760D+00 EUMP2 =    -0.14971837168891D+03

 The electronic state is 1-A.
 Alpha  occ. eigenvalues --  -15.58029 -15.51842 -11.31253  -1.25080  -1.13561
 Alpha  occ. eigenvalues --   -0.83457  -0.72056  -0.68493  -0.57344  -0.52561
 Alpha  occ. eigenvalues --   -0.42136  -0.36437
 Alpha virt. eigenvalues --    0.13233   0.15571   0.19642   0.19733   0.22172
 Alpha virt. eigenvalues --    0.34314   0.37931   0.46107   0.47916   0.50723
 Alpha virt. eigenvalues --    0.52709   0.58355   0.62354   0.65438   0.65655

 Mulliken atomic charges:
              1
     1  C    0.102561
     2  N   -0.337863
     3  N   -0.412252
     4  H    0.139636
     5  H    0.135267
     6  H    0.190203
     7  H    0.182448
 Sum of Mulliken atomic charges =   0.00000

 Dipole moment (field-independent basis, Debye):
    X=              3.7779    Y=             -0.6327    Z=              0.0009  Tot=              3.8305
 Quadrupole moment (field-independent basis, Debye-Ang):
   XX=            -20.4227   YY=            -14.0800   ZZ=            -20.8392
   XY=              1.3914   XZ=              0.0017   YZ=             -0.0003

 Normal termination of Gaussian 09 at Sun Mar 20 01:02:47 2016.
