 Gaussian 09, Revision A.01,
 Gaussian 09:  EM64L-G09RevA.01  8-May-2009

 -------------
 # mp2/cc-pVTZ
 -------------

 ----------------------
 Gly_Gly_Z_single_point
 ----------------------
 Symbolic Z-matrix:
 Charge =  0 Multiplicity = 1

                         Standard orientation:
 ---------------------------------------------------------------------
 Center     Atomic      Atomic             Coordinates (Angstroms)
 Number     Number       Type             X           Y           Z
 ---------------------------------------------------------------------
      1          6           0       -1.838299    0.705579    0.604336
      2          6           0       -1.550266   -0.637908   -0.071135
      3          7           0       -0.302605   -1.182380    0.058696
      4          6           0        0.852357   -0.707955    0.813033
      5          6           0        1.936211   -0.004132   -0.031002
      6          8           0        1.563387    1.123435   -0.632658
      7          7           0       -1.022019    1.780297   -0.015606
      8          8           0       -2.422359   -1.192677   -0.736784
      9          8           0        3.056680   -0.460560   -0.128406
     10          1           0       -1.393051    1.982460   -0.943834
     11          1           0       -1.575758    0.656500    1.666914
     12          1           0       -2.915174    0.871944    0.526104
     13          1           0        0.621751    1.371870   -0.369311
     14          1           0       -1.111727    2.643976    0.516150
     15          1           0       -0.181071   -2.016450   -0.504786
     16          1           0        0.515394   -0.028946    1.601208
     17          1           0        1.330328   -1.561854    1.297317
 ---------------------------------------------------------------------

 SCF Done:  E(RHF) =  -489.817860185     A.U. after   15 cycles
 E2 =    -0.1777266884D+01 EUMP2 =    -0.49159512706948D+03

 The electronic state is 1-A.
 Alpha  occ. eigenvalues --  -20.58584 -20.53763 -20.53436 -15.61130 -15.60998
 Alpha  occ. eigenvalues --  -11.37759 -11.37504 -11.30648 -11.30574  -1.44219
 Alpha  occ. eigenvalues --   -1.39596  -1.34565  -1.25474  -1.23340  -1.01237
 Alpha  occ. eigenvalues --   -0.98398  -0.81970  -0.81253  -0.74164  -0.73743
 Alpha  occ. eigenvalues --   -0.70063  -0.67577  -0.65584  -0.64900  -0.62321
 Alpha  occ. eigenvalues --   -0.61006  -0.59673  -0.57434  -0.56463  -0.54250
 Alpha  occ. eigenvalues --   -0.47630  -0.46214  -0.45316  -0.44181  -0.40200
 Alpha virt. eigenvalues --    0.09931   0.13168   0.14558   0.16457   0.17378
 Alpha virt. eigenvalues --    0.17942   0.18463   0.20960   0.22330   0.27011
 Alpha virt. eigenvalues --    0.28836   0.29949   0.32012   0.33242   0.34769

 Mulliken atomic charges:
              1
     1  C   -0.124948
     2  C    0.303903
     3  N   -0.243724
     4  C   -0.129350
     5  C    0.397194
     6  O   -0.352087
     7  N   -0.373959
     8  O   -0.423067
     9  O   -0.387248
    10  H    0.166661
    11  H    0.121400
    12  H    0.143928
    13  H    0.273184
    14  H    0.165160
    15  H    0.199935
    16  H    0.109920
    17  H    0.153100
 Sum of Mulliken atomic charges =   0.00000

 Dipole moment (field-independent basis, Debye):
    X=             -3.6966    Y=              2.9459    Z=              3.3699  Tot=              5.8051
 Quadrupole moment (field-independent basis, Debye-Ang):
   XX=            -76.3133   YY=            -46.9238   ZZ=            -51.0010
   XY=            -10.4098   XZ=             -1.0198   YZ=             -0.1599

 Normal termination of Gaussian 09 at Sun Mar 20 01:34:14 2016.
