 Gaussian 09, Revision A.01,
 Gaussian 09:  EM64L-G09RevA.01  8-May-2009

 -------------
 # mp2/cc-pVTZ
 -------------

 ----------------------
 Gly_Gly_E_single_point
 ----------------------
 Symbolic Z-matrix:
 Charge =  0 Multiplicity = 1

                         Standard orientation:
 ---------------------------------------------------------------------
 Center     Atomic      Atomic             Coordinates (Angstroms)
 Number     Number       Type             X           Y           Z
 ---------------------------------------------------------------------
      1          6           0        2.372160    0.198322    0.295579
      2          7           0        1.822224    1.524421   -0.069080
      3          6           0        1.256940   -0.793806   -0.033275
      4          7           0        0.209016   -0.758600    0.857448
      5          6           0       -1.153147   -1.016631    0.430437
      6          6           0       -1.922364    0.232588   -0.043682
      7          8           0       -1.233707    1.375576   -0.226344
      8          8           0        1.240472   -1.444044   -1.069271
      9          8           0       -3.113526    0.178987   -0.243207
     10          1           0       -1.120817   -1.723875   -0.402140
     11          1           0       -1.736178   -1.473176    1.233587
     12          1           0        0.322892   -0.165833    1.669035
     13          1           0        2.303999    2.276922    0.414599
     14          1           0        1.934372    1.689031   -1.067056
     15          1           0        3.273379   -0.082110   -0.258170
     16          1           0        2.601395    0.196333    1.366485
     17          1           0       -0.265169    1.314989   -0.058698
 ---------------------------------------------------------------------

 SCF Done:  E(RHF) =  -489.819642460     A.U. after   14 cycles
 E2 =    -0.1773974505D+01 EUMP2 =    -0.49159361696518D+03

 The electronic state is 1-A.
 Alpha  occ. eigenvalues --  -20.59687 -20.54658 -20.53176 -15.60833 -15.59684
 Alpha  occ. eigenvalues --  -11.37962 -11.37424 -11.30185 -11.29394  -1.44430
 Alpha  occ. eigenvalues --   -1.40365  -1.34808  -1.25896  -1.22196  -1.02187
 Alpha  occ. eigenvalues --   -0.95643  -0.82639  -0.81248  -0.75456  -0.72845
 Alpha  occ. eigenvalues --   -0.69271  -0.67235  -0.66527  -0.63909  -0.62849
 Alpha  occ. eigenvalues --   -0.60245  -0.58556  -0.56715  -0.55748  -0.54474
 Alpha  occ. eigenvalues --   -0.47428  -0.46289  -0.45956  -0.43730  -0.40864
 Alpha virt. eigenvalues --    0.10134   0.13222   0.15422   0.15705   0.17024
 Alpha virt. eigenvalues --    0.18373   0.18455   0.21480   0.23816   0.26596
 Alpha virt. eigenvalues --    0.29211   0.29392   0.30308   0.33913   0.35676

 Mulliken atomic charges:
              1
     1  C   -0.089505
     2  N   -0.410420
     3  C    0.325035
     4  N   -0.270184
     5  C   -0.105957
     6  C    0.380249
     7  O   -0.329345
     8  O   -0.417321
     9  O   -0.387079
    10  H    0.152238
    11  H    0.141453
    12  H    0.169066
    13  H    0.168417
    14  H    0.174100
    15  H    0.126468
    16  H    0.114459
    17  H    0.258324
 Sum of Mulliken atomic charges =   0.00000

 Dipole moment (field-independent basis, Debye):
    X=              6.1026    Y=              1.5264    Z=              3.7362  Tot=              7.3165
 Quadrupole moment (field-independent basis, Debye-Ang):
   XX=            -61.1665   YY=            -54.8391   ZZ=            -50.8840
   XY=             11.8183   XZ=              0.2660   YZ=             -2.8601

 Normal termination of Gaussian 09 at Sun Mar 20 01:17:44 2016.
