 Gaussian 09, Revision A.01,
 Gaussian 09:  EM64L-G09RevA.01  8-May-2009

 -------------
 # mp2/cc-pVTZ
 -------------

 -------------------------------------
 hexahydropyrimidine_lp_H_single_point
 -------------------------------------
 Symbolic Z-matrix:
 Charge =  0 Multiplicity = 1

                         Standard orientation:
 ---------------------------------------------------------------------
 Center     Atomic      Atomic             Coordinates (Angstroms)
 Number     Number       Type             X           Y           Z
 ---------------------------------------------------------------------
      1          6           0        1.172338   -0.757527    0.212425
      2          7           0        1.219373    0.613824   -0.317395
      3          6           0        0.106640    1.423249    0.193614
      4          6           0       -1.218449    0.767528   -0.218276
      5          6           0       -1.240680   -0.706244    0.226143
      6          7           0       -0.041066   -1.452851   -0.181453
      7          1           0       -0.039123   -1.562207   -1.193966
      8          1           0        2.112887    1.048779   -0.100140
      9          1           0       -1.318147    0.823580   -1.309841
     10          1           0        0.132905    1.515251    1.297985
     11          1           0        0.183453    2.434165   -0.220688
     12          1           0       -2.123124   -1.223255   -0.165746
     13          1           0       -1.301844   -0.758631    1.322397
     14          1           0        2.042029   -1.306228   -0.161835
     15          1           0        1.206877   -0.773291    1.318325
     16          1           0       -2.063149    1.312991    0.222015
 ---------------------------------------------------------------------

 SCF Done:  E(RHF) =  -266.267790824     A.U. after   12 cycles
 E2 =    -0.1109513356D+01 EUMP2 =    -0.26737730418009D+03

 The electronic state is 1-A.
 Alpha  occ. eigenvalues --  -15.53661 -15.53485 -11.27040 -11.24752 -11.24488
 Alpha  occ. eigenvalues --  -11.21705  -1.23934  -1.14715  -1.03250  -0.87959
 Alpha  occ. eigenvalues --   -0.86758  -0.77700  -0.68569  -0.63671  -0.62084
 Alpha  occ. eigenvalues --   -0.59865  -0.56918  -0.55069  -0.53171  -0.49257
 Alpha  occ. eigenvalues --   -0.47947  -0.46195  -0.37048  -0.36688
 Alpha virt. eigenvalues --    0.14083   0.15800   0.16531   0.17707   0.20330
 Alpha virt. eigenvalues --    0.20989   0.22213   0.22896   0.24016   0.24901
 Alpha virt. eigenvalues --    0.30551   0.32043   0.33145   0.35988   0.38304

 Mulliken atomic charges:
              1
     1  C    0.004671
     2  N   -0.296828
     3  C   -0.082698
     4  C   -0.185348
     5  C   -0.088129
     6  N   -0.280169
     7  H    0.105878
     8  H    0.119674
     9  H    0.087138
    10  H    0.064390
    11  H    0.100279
    12  H    0.105002
    13  H    0.084619
    14  H    0.096867
    15  H    0.068721
    16  H    0.095932
 Sum of Mulliken atomic charges =   0.00000

 Dipole moment (field-independent basis, Debye):
    X=              0.1542    Y=              1.1608    Z=              0.3134  Tot=              1.2122
 Quadrupole moment (field-independent basis, Debye-Ang):
   XX=            -35.2868   YY=            -41.1219   ZZ=            -38.6134
   XY=              0.2489   XZ=              1.3416   YZ=              2.1998

 Normal termination of Gaussian 09 at Sun Mar 20 22:43:44 2016.
