 Gaussian 09, Revision A.01,
 Gaussian 09:  EM64L-G09RevA.01  8-May-2009

 -------------
 # mp2/cc-pVTZ
 -------------

 ------------------------------------
 hexahydropyrimidine_H_H_single_point
 ------------------------------------
 Symbolic Z-matrix:
 Charge =  0 Multiplicity = 1

                         Standard orientation:
 ---------------------------------------------------------------------
 Center     Atomic      Atomic             Coordinates (Angstroms)
 Number     Number       Type             X           Y           Z
 ---------------------------------------------------------------------
      1          6           0        1.402274   -0.000223    0.222403
      2          7           0        0.744928    1.248046   -0.174189
      3          6           0       -0.672651    1.260961    0.215098
      4          6           0       -1.437293    0.000220   -0.230114
      5          6           0       -0.673046   -1.260763    0.215085
      6          7           0        0.744538   -1.248244   -0.174169
      7          1           0        0.827881   -1.378431   -1.180916
      8          1           0        0.828246    1.378095   -1.180962
      9          1           0       -1.536199    0.000239   -1.325597
     10          1           0       -0.709443    1.340173    1.311074
     11          1           0       -1.137763    2.169332   -0.182539
     12          1           0       -1.138412   -2.168982   -0.182604
     13          1           0       -0.709899   -1.340018    1.311056
     14          1           0        2.423003   -0.000372   -0.170486
     15          1           0        1.464520   -0.000208    1.318663
     16          1           0       -2.453899    0.000386    0.185979
 ---------------------------------------------------------------------

 SCF Done:  E(RHF) =  -266.267387357     A.U. after   12 cycles
 E2 =    -0.1109965803D+01 EUMP2 =    -0.26737735316008D+03

 The electronic state is 1-A.
 Alpha  occ. eigenvalues --  -15.53679 -15.53677 -11.26968 -11.24742 -11.24742
 Alpha  occ. eigenvalues --  -11.21945  -1.23813  -1.14768  -1.03290  -0.87970
 Alpha  occ. eigenvalues --   -0.87110  -0.79081  -0.67331  -0.64875  -0.61786
 Alpha  occ. eigenvalues --   -0.58984  -0.57572  -0.53108  -0.52815  -0.49671
 Alpha  occ. eigenvalues --   -0.49396  -0.47318  -0.39374  -0.34794
 Alpha virt. eigenvalues --    0.13405   0.15407   0.17211   0.17282   0.20900
 Alpha virt. eigenvalues --    0.21182   0.21815   0.22100   0.23744   0.24928
 Alpha virt. eigenvalues --    0.31275   0.31877   0.33923   0.36368   0.38103

 Mulliken atomic charges:
              1
     1  C   -0.002909
     2  N   -0.279539
     3  C   -0.089131
     4  C   -0.199081
     5  C   -0.089133
     6  N   -0.279529
     7  H    0.095813
     8  H    0.095804
     9  H    0.079708
    10  H    0.086951
    11  H    0.106176
    12  H    0.106174
    13  H    0.086956
    14  H    0.100803
    15  H    0.084417
    16  H    0.096519
 Sum of Mulliken atomic charges =   0.00000

 Dipole moment (field-independent basis, Debye):
    X=             -1.1095    Y=             -0.0001    Z=             -1.2243  Tot=              1.6522
 Quadrupole moment (field-independent basis, Debye-Ang):
   XX=            -38.7074   YY=            -43.4139   ZZ=            -35.3306
   XY=             -0.0011   XZ=             -1.7912   YZ=              0.0005

 Normal termination of Gaussian 09 at Sun Mar 20 01:42:10 2016.
