 Gaussian 09, Revision A.01,
 Gaussian 09:  EM64L-G09RevA.01  8-May-2009

 -------------
 # mp2/cc-pVTZ
 -------------

 -----------------------------
 isopropylamine_g_single_point
 -----------------------------
 Symbolic Z-matrix:
 Charge =  0 Multiplicity = 1

                         Standard orientation:
 ---------------------------------------------------------------------
 Center     Atomic      Atomic             Coordinates (Angstroms)
 Number     Number       Type             X           Y           Z
 ---------------------------------------------------------------------
      1          6           0        1.363247   -0.497026    0.082791
      2          6           0       -0.002781    0.026909   -0.369517
      3          7           0       -0.136414    1.430535    0.053613
      4          6           0       -1.144678   -0.885395    0.111669
      5          1           0        2.164893    0.142406   -0.297623
      6          1           0        1.429820   -0.509917    1.178908
      7          1           0        1.530406   -1.519856   -0.271034
      8          1           0       -0.015322    0.038668   -1.468170
      9          1           0       -2.117682   -0.507665   -0.223773
     10          1           0       -1.031202   -1.906878   -0.271612
     11          1           0       -1.163536   -0.936899    1.208026
     12          1           0       -1.026473    1.818953   -0.249235
     13          1           0       -0.110730    1.500520    1.069561
 ---------------------------------------------------------------------

 SCF Done:  E(RHF) =  -173.353666709     A.U. after   12 cycles
 E2 =    -0.7550202706D+00 EUMP2 =    -0.17410868697940D+03

 The electronic state is 1-A.
 Alpha  occ. eigenvalues --  -15.53168 -11.25350 -11.21290 -11.20982  -1.17618
 Alpha  occ. eigenvalues --   -1.00819  -0.92881  -0.78706  -0.66228  -0.60648
 Alpha  occ. eigenvalues --   -0.59283  -0.55808  -0.53370  -0.50898  -0.48340
 Alpha  occ. eigenvalues --   -0.46962  -0.38429
 Alpha virt. eigenvalues --    0.13542   0.17258   0.17649   0.18813   0.21145
 Alpha virt. eigenvalues --    0.21594   0.23683   0.25498   0.26487   0.29730
 Alpha virt. eigenvalues --    0.33555   0.35186   0.38010   0.42228   0.44842

 Mulliken atomic charges:
              1
     1  C   -0.281996
     2  C    0.047756
     3  N   -0.382813
     4  C   -0.278143
     5  H    0.109555
     6  H    0.078265
     7  H    0.088270
     8  H    0.094857
     9  H    0.088087
    10  H    0.086522
    11  H    0.079675
    12  H    0.136528
    13  H    0.133438
 Sum of Mulliken atomic charges =   0.00000

 Dipole moment (field-independent basis, Debye):
    X=             -0.9616    Y=             -0.6284    Z=              0.4175  Tot=              1.2222
 Quadrupole moment (field-independent basis, Debye-Ang):
   XX=            -27.6010   YY=            -29.5179   ZZ=            -26.3100
   XY=             -2.5229   XZ=              0.4763   YZ=              1.3444

 Normal termination of Gaussian 09 at Sun Mar 20 22:50:20 2016.
