 Gaussian 09, Revision A.01,
 Gaussian 09:  EM64L-G09RevA.01  8-May-2009

 -------------
 # mp2/cc-pVTZ
 -------------

 -----------------------------
 isopropylamine_a_single_point
 -----------------------------
 Symbolic Z-matrix:
 Charge =  0 Multiplicity = 1

                         Standard orientation:
 ---------------------------------------------------------------------
 Center     Atomic      Atomic             Coordinates (Angstroms)
 Number     Number       Type             X           Y           Z
 ---------------------------------------------------------------------
      1          6           0       -1.266931   -0.700621   -0.096231
      2          6           0        0.000002    0.026183    0.362636
      3          7           0        0.000110    1.385539   -0.201764
      4          6           0        1.266776   -0.700852   -0.096195
      5          1           0       -2.168745   -0.172697    0.236689
      6          1           0       -1.295126   -0.762241   -1.189608
      7          1           0       -1.304876   -1.715281    0.314667
      8          1           0       -0.000021    0.039727    1.468188
      9          1           0        2.168722   -0.173217    0.236842
     10          1           0        1.304479   -1.715577    0.314574
     11          1           0        1.295036   -0.762384   -1.189580
     12          1           0       -0.819010    1.907502    0.099949
     13          1           0        0.819685    1.907131    0.099369
 ---------------------------------------------------------------------

 SCF Done:  E(RHF) =  -173.354285863     A.U. after   11 cycles
 E2 =    -0.7550158025D+00 EUMP2 =    -0.17410930166519D+03

 The electronic state is 1-A.
 Alpha  occ. eigenvalues --  -15.53149 -11.25312 -11.20982 -11.20981  -1.17607
 Alpha  occ. eigenvalues --   -1.00865  -0.92847  -0.77770  -0.64684  -0.64673
 Alpha  occ. eigenvalues --   -0.59428  -0.53591  -0.52533  -0.50432  -0.48774
 Alpha  occ. eigenvalues --   -0.47177  -0.38424
 Alpha virt. eigenvalues --    0.13562   0.17678   0.17853   0.19013   0.21278
 Alpha virt. eigenvalues --    0.21440   0.22560   0.26443   0.27220   0.29674
 Alpha virt. eigenvalues --    0.34747   0.35231   0.37937   0.41131   0.44582

 Mulliken atomic charges:
              1
     1  C   -0.278922
     2  C    0.055386
     3  N   -0.389318
     4  C   -0.278951
     5  H    0.086566
     6  H    0.096535
     7  H    0.086729
     8  H    0.075560
     9  H    0.086567
    10  H    0.086740
    11  H    0.096539
    12  H    0.138285
    13  H    0.138284
 Sum of Mulliken atomic charges =   0.00000

 Dipole moment (field-independent basis, Debye):
    X=              0.0005    Y=              0.1831    Z=              1.2593  Tot=              1.2725
 Quadrupole moment (field-independent basis, Debye-Ang):
   XX=            -26.6915   YY=            -26.0889   ZZ=            -29.1249
   XY=              0.0005   XZ=             -0.0008   YZ=              1.9811

 Normal termination of Gaussian 09 at Sun Mar 20 22:46:59 2016.
