 Gaussian 09, Revision A.01,
 Gaussian 09:  EM64L-G09RevA.01  8-May-2009

 -------------
 # mp2/cc-pVTZ
 -------------

 -----------------------------------------
 N_2_dimethylpiperidine_eq_eq_single_point
 -----------------------------------------
 Symbolic Z-matrix:
 Charge =  0 Multiplicity = 1

                         Standard orientation:
 ---------------------------------------------------------------------
 Center     Atomic      Atomic             Coordinates (Angstroms)
 Number     Number       Type             X           Y           Z
 ---------------------------------------------------------------------
      1          6           0       -1.941619    0.730682    0.243703
      2          6           0       -0.642792    1.456473   -0.121348
      3          6           0        0.614722    0.673472    0.299020
      4          7           0        0.573065   -0.688469   -0.270924
      5          6           0       -0.637296   -1.413518    0.134657
      6          6           0       -1.913264   -0.697952   -0.308460
      7          6           0        1.871221    1.440524   -0.131079
      8          6           0        1.758279   -1.480670    0.043719
      9          1           0        0.617416    0.603667    1.409634
     10          1           0       -0.661277   -1.555382    1.236925
     11          1           0       -0.594502   -2.413325   -0.311809
     12          1           0       -0.601047    1.614437   -1.207811
     13          1           0       -0.612650    2.446389    0.350350
     14          1           0       -2.786609   -1.268019    0.031654
     15          1           0       -1.944548   -0.673515   -1.405339
     16          1           0       -2.046969    0.696084    1.337757
     17          1           0       -2.809460    1.281315   -0.139139
     18          1           0        1.927239   -1.588071    1.134384
     19          1           0        1.641267   -2.483508   -0.378126
     20          1           0        2.652983   -1.039652   -0.399791
     21          1           0        1.795423    2.481840    0.199112
     22          1           0        2.787937    1.029544    0.300208
     23          1           0        1.967833    1.433407   -1.222805
 ---------------------------------------------------------------------

 SCF Done:  E(RHF) =  -328.362431960     A.U. after   11 cycles
 E2 =    -0.1432056367D+01 EUMP2 =    -0.32979448832645D+03

 The electronic state is 1-A.
 Alpha  occ. eigenvalues --  -15.53958 -11.25054 -11.24161 -11.23690 -11.21572
 Alpha  occ. eigenvalues --  -11.21403 -11.21346 -11.20981  -1.22302  -1.06582
 Alpha  occ. eigenvalues --   -1.03523  -0.94305  -0.91245  -0.83733  -0.80284
 Alpha  occ. eigenvalues --   -0.74642  -0.64523  -0.62956  -0.61483  -0.60577
 Alpha  occ. eigenvalues --   -0.59272  -0.55303  -0.53761  -0.53145  -0.51866
 Alpha  occ. eigenvalues --   -0.50951  -0.49534  -0.47291  -0.46089  -0.43912
 Alpha  occ. eigenvalues --   -0.43066  -0.34852
 Alpha virt. eigenvalues --    0.14479   0.15480   0.16135   0.16398   0.19340
 Alpha virt. eigenvalues --    0.19887   0.20937   0.21433   0.22444   0.23466
 Alpha virt. eigenvalues --    0.23822   0.24242   0.25089   0.26635   0.28077

 Mulliken atomic charges:
              1
     1  C   -0.198513
     2  C   -0.184077
     3  C    0.054906
     4  N   -0.251219
     5  C   -0.075786
     6  C   -0.178449
     7  C   -0.322232
     8  C   -0.199514
     9  H    0.069127
    10  H    0.056216
    11  H    0.095340
    12  H    0.088042
    13  H    0.102524
    14  H    0.102179
    15  H    0.088274
    16  H    0.088319
    17  H    0.106777
    18  H    0.059646
    19  H    0.096789
    20  H    0.100682
    21  H    0.100169
    22  H    0.102018
    23  H    0.098782
 Sum of Mulliken atomic charges =   0.00000

 Dipole moment (field-independent basis, Debye):
    X=             -0.0680    Y=             -0.0143    Z=              0.5685  Tot=              0.5728
 Quadrupole moment (field-independent basis, Debye-Ang):
   XX=            -52.1054   YY=            -51.8484   ZZ=            -54.2656
   XY=             -0.0642   XZ=              0.3607   YZ=              0.0092

 Normal termination of Gaussian 09 at Sun Mar 20 23:41:02 2016.
