 Gaussian 09, Revision A.01,
 Gaussian 09:  EM64L-G09RevA.01  8-May-2009

 -------------
 # mp2/cc-pVTZ
 -------------

 -----------------------------------------
 N_2_dimethylpiperidine_eq_ax_single_point
 -----------------------------------------
 Symbolic Z-matrix:
 Charge =  0 Multiplicity = 1

                         Standard orientation:
 ---------------------------------------------------------------------
 Center     Atomic      Atomic             Coordinates (Angstroms)
 Number     Number       Type             X           Y           Z
 ---------------------------------------------------------------------
      1          6           0       -1.967151    0.155879    0.131036
      2          6           0       -1.079404    1.016650   -0.780487
      3          6           0        0.414096    0.916268   -0.411793
      4          7           0        0.811167   -0.506291   -0.418417
      5          6           0        0.030497   -1.353699    0.483866
      6          6           0       -1.462826   -1.293365    0.146416
      7          6           0        0.747855    1.689787    0.884386
      8          6           0        2.243443   -0.724940   -0.287478
      9          1           0        0.987071    1.386201   -1.222974
     10          1           0        0.183999   -1.083616    1.548861
     11          1           0        0.394871   -2.381799    0.371582
     12          1           0       -1.197782    0.676356   -1.816846
     13          1           0       -1.393595    2.067066   -0.745658
     14          1           0       -2.026429   -1.894393    0.870712
     15          1           0       -1.616656   -1.743834   -0.842829
     16          1           0       -1.963061    0.558619    1.153115
     17          1           0       -3.008160    0.196003   -0.211841
     18          1           0        2.643195   -0.517776    0.723414
     19          1           0        2.475890   -1.768485   -0.527310
     20          1           0        2.780025   -0.088882   -0.999926
     21          1           0        1.817360    1.644596    1.113238
     22          1           0        0.481684    2.746069    0.765166
     23          1           0        0.204362    1.308425    1.754544
 ---------------------------------------------------------------------

 SCF Done:  E(RHF) =  -328.359496319     A.U. after   11 cycles
 E2 =    -0.1431501761D+01 EUMP2 =    -0.32979099808046D+03

 The electronic state is 1-A.
 Alpha  occ. eigenvalues --  -15.53515 -11.24949 -11.24096 -11.23736 -11.21546
 Alpha  occ. eigenvalues --  -11.21369 -11.21288 -11.20861  -1.22055  -1.06403
 Alpha  occ. eigenvalues --   -1.02896  -0.94732  -0.91030  -0.83611  -0.81807
 Alpha  occ. eigenvalues --   -0.72221  -0.65835  -0.62733  -0.61782  -0.59992
 Alpha  occ. eigenvalues --   -0.57124  -0.56051  -0.54539  -0.53859  -0.52541
 Alpha  occ. eigenvalues --   -0.50514  -0.49152  -0.47636  -0.45494  -0.43827
 Alpha  occ. eigenvalues --   -0.43251  -0.34002
 Alpha virt. eigenvalues --    0.13676   0.15926   0.16239   0.16447   0.19264
 Alpha virt. eigenvalues --    0.20005   0.20300   0.21708   0.21858   0.23557
 Alpha virt. eigenvalues --    0.24136   0.24776   0.26429   0.27009   0.27829

 Mulliken atomic charges:
              1
     1  C   -0.211464
     2  C   -0.187265
     3  C    0.007875
     4  N   -0.240792
     5  C   -0.083584
     6  C   -0.179692
     7  C   -0.320020
     8  C   -0.198484
     9  H    0.104095
    10  H    0.064340
    11  H    0.099104
    12  H    0.098063
    13  H    0.099545
    14  H    0.102042
    15  H    0.087649
    16  H    0.093122
    17  H    0.111521
    18  H    0.061542
    19  H    0.097989
    20  H    0.092255
    21  H    0.105095
    22  H    0.103499
    23  H    0.093565
 Sum of Mulliken atomic charges =   0.00000

 Dipole moment (field-independent basis, Debye):
    X=              0.0460    Y=              0.2424    Z=              0.4679  Tot=              0.5290
 Quadrupole moment (field-independent basis, Debye-Ang):
   XX=            -52.0791   YY=            -52.2376   ZZ=            -54.1381
   XY=              0.0712   XZ=             -0.1688   YZ=             -1.0714

 Normal termination of Gaussian 09 at Sun Mar 20 23:15:24 2016.
