 Gaussian 09, Revision A.01,
 Gaussian 09:  EM64L-G09RevA.01  8-May-2009

 -------------
 # mp2/cc-pVTZ
 -------------

 -----------------------------------------
 N_3_dimethylpiperidine_eq_eq_single_point
 -----------------------------------------
 Symbolic Z-matrix:
 Charge =  0 Multiplicity = 1

                         Standard orientation:
 ---------------------------------------------------------------------
 Center     Atomic      Atomic             Coordinates (Angstroms)
 Number     Number       Type             X           Y           Z
 ---------------------------------------------------------------------
      1          6           0        1.240521    1.145867    0.180093
      2          6           0        1.261581   -0.299973   -0.343885
      3          6           0       -0.012293   -1.032786    0.103167
      4          7           0       -1.226774   -0.328788   -0.310971
      5          6           0       -1.281437    1.024353    0.244059
      6          6           0       -0.069790    1.850643   -0.195156
      7          6           0       -2.425732   -1.090855    0.007417
      8          6           0        2.519869   -1.056701    0.096800
      9          1           0       -0.034782   -2.037948   -0.335054
     10          1           0       -1.324583    0.994906    1.354747
     11          1           0       -2.208093    1.498353   -0.099527
     12          1           0        1.241891   -0.262657   -1.442571
     13          1           0       -0.119271    2.844161    0.266999
     14          1           0       -0.115047    1.993884   -1.282267
     15          1           0        1.345729    1.129381    1.275804
     16          1           0        2.102729    1.702010   -0.209469
     17          1           0       -2.560574   -1.248974    1.096584
     18          1           0       -3.309526   -0.566731   -0.370804
     19          1           0       -2.380426   -2.072859   -0.474676
     20          1           0        0.014385   -1.163673    1.207821
     21          1           0        2.575138   -1.131349    1.190010
     22          1           0        2.537601   -2.075067   -0.308897
     23          1           0        3.425932   -0.545216   -0.246878
 ---------------------------------------------------------------------

 SCF Done:  E(RHF) =  -328.365119033     A.U. after   11 cycles
 E2 =    -0.1429893137D+01 EUMP2 =    -0.32979501216966D+03

 The electronic state is 1-A.
 Alpha  occ. eigenvalues --  -15.53951 -11.24240 -11.24114 -11.23875 -11.22140
 Alpha  occ. eigenvalues --  -11.21553 -11.21492 -11.21165  -1.22465  -1.07927
 Alpha  occ. eigenvalues --   -1.02482  -0.93347  -0.92168  -0.83500  -0.80547
 Alpha  occ. eigenvalues --   -0.74852  -0.65017  -0.62923  -0.61323  -0.60421
 Alpha  occ. eigenvalues --   -0.59238  -0.54833  -0.54423  -0.53465  -0.52577
 Alpha  occ. eigenvalues --   -0.51489  -0.48756  -0.47488  -0.45586  -0.43747
 Alpha  occ. eigenvalues --   -0.43333  -0.34884
 Alpha virt. eigenvalues --    0.14197   0.15547   0.15989   0.16499   0.19267
 Alpha virt. eigenvalues --    0.19486   0.21000   0.21424   0.22401   0.23020
 Alpha virt. eigenvalues --    0.23323   0.24532   0.26023   0.27139   0.27999

 Mulliken atomic charges:
              1
     1  C   -0.189153
     2  C   -0.065692
     3  C   -0.055993
     4  N   -0.239407
     5  C   -0.069802
     6  C   -0.191894
     7  C   -0.186595
     8  C   -0.312353
     9  H    0.092017
    10  H    0.057173
    11  H    0.095696
    12  H    0.098436
    13  H    0.102961
    14  H    0.090444
    15  H    0.086908
    16  H    0.104582
    17  H    0.055087
    18  H    0.093393
    19  H    0.093363
    20  H    0.054468
    21  H    0.087880
    22  H    0.098405
    23  H    0.100074
 Sum of Mulliken atomic charges =   0.00000

 Dipole moment (field-independent basis, Debye):
    X=              0.0397    Y=              0.0460    Z=              0.4600  Tot=              0.4640
 Quadrupole moment (field-independent basis, Debye-Ang):
   XX=            -52.4124   YY=            -51.8857   ZZ=            -54.3924
   XY=              0.1220   XZ=             -0.8732   YZ=              0.2105

 Normal termination of Gaussian 09 at Mon Mar 21 00:29:06 2016.
