 Gaussian 09, Revision A.01,
 Gaussian 09:  EM64L-G09RevA.01  8-May-2009

 -------------
 # mp2/cc-pVTZ
 -------------

 -----------------------------------------
 N_3_dimethylpiperidine_eq_ax_single_point
 -----------------------------------------
 Symbolic Z-matrix:
 Charge =  0 Multiplicity = 1

                         Standard orientation:
 ---------------------------------------------------------------------
 Center     Atomic      Atomic             Coordinates (Angstroms)
 Number     Number       Type             X           Y           Z
 ---------------------------------------------------------------------
      1          6           0        1.462014    0.894055    0.548093
      2          6           0        1.239465   -0.631822    0.479746
      3          6           0       -0.253765   -0.935705    0.700080
      4          7           0       -1.107396   -0.221554   -0.251889
      5          6           0       -0.950378    1.228319   -0.124226
      6          6           0        0.499346    1.651591   -0.378798
      7          6           0       -2.500838   -0.624940   -0.131850
      8          6           0        1.768302   -1.255084   -0.822142
      9          1           0       -0.436963   -2.010555    0.582708
     10          1           0       -1.262799    1.570644    0.887038
     11          1           0       -1.619303    1.711575   -0.845667
     12          1           0        1.784431   -1.091213    1.316382
     13          1           0        0.594635    2.733232   -0.223573
     14          1           0        0.747960    1.455530   -1.428539
     15          1           0        1.294525    1.228728    1.581856
     16          1           0        2.503531    1.137506    0.303878
     17          1           0       -2.934272   -0.387095    0.860758
     18          1           0       -3.101192   -0.117444   -0.894076
     19          1           0       -2.590328   -1.704470   -0.290936
     20          1           0       -0.528093   -0.673154    1.744875
     21          1           0        1.219522   -0.890266   -1.694798
     22          1           0        2.830893   -1.024425   -0.961554
     23          1           0        1.664351   -2.346209   -0.800552
 ---------------------------------------------------------------------

 SCF Done:  E(RHF) =  -328.362249131     A.U. after   11 cycles
 E2 =    -0.1431156803D+01 EUMP2 =    -0.32979340593367D+03

 The electronic state is 1-A.
 Alpha  occ. eigenvalues --  -15.53969 -11.24268 -11.24141 -11.23899 -11.22239
 Alpha  occ. eigenvalues --  -11.21555 -11.21479 -11.20454  -1.22502  -1.07662
 Alpha  occ. eigenvalues --   -1.02176  -0.93182  -0.92140  -0.83480  -0.81726
 Alpha  occ. eigenvalues --   -0.72579  -0.65594  -0.62869  -0.61703  -0.60645
 Alpha  occ. eigenvalues --   -0.57818  -0.56248  -0.54515  -0.53755  -0.52031
 Alpha  occ. eigenvalues --   -0.50167  -0.49103  -0.47548  -0.45330  -0.43463
 Alpha  occ. eigenvalues --   -0.43288  -0.34844
 Alpha virt. eigenvalues --    0.13653   0.15790   0.16319   0.16643   0.19223
 Alpha virt. eigenvalues --    0.20018   0.20213   0.21820   0.22295   0.22833
 Alpha virt. eigenvalues --    0.23618   0.24722   0.26045   0.26752   0.28528

 Mulliken atomic charges:
              1
     1  C   -0.197917
     2  C   -0.085164
     3  C   -0.082688
     4  N   -0.239794
     5  C   -0.072147
     6  C   -0.202842
     7  C   -0.185185
     8  C   -0.307331
     9  H    0.094407
    10  H    0.055655
    11  H    0.095610
    12  H    0.108915
    13  H    0.109812
    14  H    0.097218
    15  H    0.098127
    16  H    0.103780
    17  H    0.055169
    18  H    0.093123
    19  H    0.093099
    20  H    0.076272
    21  H    0.102501
    22  H    0.093659
    23  H    0.095720
 Sum of Mulliken atomic charges =   0.00000

 Dipole moment (field-independent basis, Debye):
    X=             -0.1266    Y=              0.2058    Z=              0.5444  Tot=              0.5956
 Quadrupole moment (field-independent basis, Debye-Ang):
   XX=            -52.1868   YY=            -52.0169   ZZ=            -54.1658
   XY=              0.1178   XZ=              0.4035   YZ=             -0.9367

 Normal termination of Gaussian 09 at Mon Mar 21 00:05:36 2016.
