 Gaussian 09, Revision A.01,
 Gaussian 09:  EM64L-G09RevA.01  8-May-2009

 -------------
 # mp2/cc-pVTZ
 -------------

 -----------------------------------------
 N_4_dimethylpiperidine_eq_eq_single_point
 -----------------------------------------
 Symbolic Z-matrix:
 Charge =  0 Multiplicity = 1

                         Standard orientation:
 ---------------------------------------------------------------------
 Center     Atomic      Atomic             Coordinates (Angstroms)
 Number     Number       Type             X           Y           Z
 ---------------------------------------------------------------------
      1          6           0       -1.459173    0.000008    0.325958
      2          6           0       -0.715431    1.252356   -0.166971
      3          6           0        0.771020    1.209466    0.198919
      4          7           0        1.411675   -0.000011   -0.318973
      5          6           0        0.770984   -1.209467    0.198932
      6          6           0       -0.715460   -1.252329   -0.166979
      7          6           0        2.846599   -0.000019   -0.075490
      8          6           0       -2.933085   -0.000004   -0.094415
      9          1           0        1.288304    2.078642   -0.223576
     10          1           0        0.881032   -1.273720    1.303466
     11          1           0        1.288255   -2.078662   -0.223542
     12          1           0       -0.810147    1.324454   -1.259036
     13          1           0       -1.168628   -2.156672    0.259279
     14          1           0       -0.810162   -1.324444   -1.259047
     15          1           0       -1.418429    0.000018    1.427143
     16          1           0        3.102333    0.000000    1.003428
     17          1           0        3.300073   -0.886361   -0.531039
     18          1           0        3.300088    0.886299   -0.531073
     19          1           0        0.881076    1.273753    1.303454
     20          1           0       -1.168572    2.156717    0.259279
     21          1           0       -3.029003   -0.000023   -1.187379
     22          1           0       -3.455332   -0.885706    0.285880
     23          1           0       -3.455337    0.885710    0.285849
 ---------------------------------------------------------------------

 SCF Done:  E(RHF) =  -328.365358748     A.U. after   11 cycles
 E2 =    -0.1429764383D+01 EUMP2 =    -0.32979512313030D+03

 The electronic state is 1-A.
 Alpha  occ. eigenvalues --  -15.53936 -11.24266 -11.24264 -11.23875 -11.22307
 Alpha  occ. eigenvalues --  -11.21387 -11.21384 -11.21058  -1.22463  -1.08365
 Alpha  occ. eigenvalues --   -1.00868  -0.96630  -0.89348  -0.84543  -0.80365
 Alpha  occ. eigenvalues --   -0.74770  -0.64673  -0.62072  -0.62019  -0.60814
 Alpha  occ. eigenvalues --   -0.59170  -0.55801  -0.54155  -0.52943  -0.52256
 Alpha  occ. eigenvalues --   -0.51236  -0.48696  -0.48364  -0.45395  -0.43595
 Alpha  occ. eigenvalues --   -0.43284  -0.34880
 Alpha virt. eigenvalues --    0.14388   0.15082   0.16440   0.16453   0.18421
 Alpha virt. eigenvalues --    0.20068   0.20957   0.21981   0.22467   0.23174
 Alpha virt. eigenvalues --    0.23333   0.25050   0.26261   0.26596   0.26937

 Mulliken atomic charges:
              1
     1  C   -0.074531
     2  C   -0.177932
     3  C   -0.078776
     4  N   -0.233200
     5  C   -0.078779
     6  C   -0.177927
     7  C   -0.185999
     8  C   -0.304738
     9  H    0.096073
    10  H    0.058254
    11  H    0.096073
    12  H    0.088417
    13  H    0.099838
    14  H    0.088419
    15  H    0.098516
    16  H    0.055569
    17  H    0.093614
    18  H    0.093614
    19  H    0.058252
    20  H    0.099840
    21  H    0.089787
    22  H    0.097807
    23  H    0.097806
 Sum of Mulliken atomic charges =   0.00000

 Dipole moment (field-independent basis, Debye):
    X=              0.0146    Y=              0.0000    Z=              0.6023  Tot=              0.6025
 Quadrupole moment (field-independent basis, Debye-Ang):
   XX=            -52.7160   YY=            -51.6354   ZZ=            -54.3878
   XY=              0.0001   XZ=              0.1088   YZ=              0.0000

 Normal termination of Gaussian 09 at Mon Mar 21 01:17:04 2016.
