 Gaussian 09, Revision A.01,
 Gaussian 09:  EM64L-G09RevA.01  8-May-2009

 -------------
 # mp2/cc-pVTZ
 -------------

 -----------------------------------------
 N_4_dimethylpiperidine_eq_ax_single_point
 -----------------------------------------
 Symbolic Z-matrix:
 Charge =  0 Multiplicity = 1

                         Standard orientation:
 ---------------------------------------------------------------------
 Center     Atomic      Atomic             Coordinates (Angstroms)
 Number     Number       Type             X           Y           Z
 ---------------------------------------------------------------------
      1          6           0       -1.600733    0.000011   -0.379424
      2          6           0       -0.739760    1.255439   -0.637680
      3          6           0        0.605371    1.209237    0.095501
      4          7           0        1.354351    0.000000   -0.251671
      5          6           0        0.605347   -1.209230    0.095461
      6          6           0       -0.739776   -1.255379   -0.637717
      7          6           0        2.683380   -0.000027    0.341730
      8          6           0       -2.247013   -0.000036    1.016861
      9          1           0        1.209461    2.078659   -0.188921
     10          1           0        0.448785   -1.277031    1.192604
     11          1           0        1.209429   -2.078657   -0.188973
     12          1           0       -0.538255    1.336397   -1.713163
     13          1           0       -1.285639   -2.159982   -0.340498
     14          1           0       -0.538272   -1.336307   -1.713204
     15          1           0       -2.419512    0.000038   -1.112035
     16          1           0        2.661406   -0.000037    1.450461
     17          1           0        3.236103   -0.886541    0.013893
     18          1           0        3.236148    0.886468    0.013920
     19          1           0        0.448811    1.277006    1.192647
     20          1           0       -1.285612    2.160034   -0.340418
     21          1           0       -1.505755   -0.000064    1.822559
     22          1           0       -2.879225    0.885271    1.152250
     23          1           0       -2.879224   -0.885351    1.152189
 ---------------------------------------------------------------------

 SCF Done:  E(RHF) =  -328.361215998     A.U. after   11 cycles
 E2 =    -0.1430897481D+01 EUMP2 =    -0.32979211347889D+03

 The electronic state is 1-A.
 Alpha  occ. eigenvalues --  -15.53883 -11.24190 -11.24189 -11.23837 -11.22395
 Alpha  occ. eigenvalues --  -11.21403 -11.21401 -11.21022  -1.22396  -1.08117
 Alpha  occ. eigenvalues --   -1.00811  -0.96126  -0.89952  -0.84412  -0.81384
 Alpha  occ. eigenvalues --   -0.72399  -0.65859  -0.62202  -0.62118  -0.60021
 Alpha  occ. eigenvalues --   -0.59546  -0.56396  -0.53632  -0.53114  -0.52516
 Alpha  occ. eigenvalues --   -0.50585  -0.49195  -0.48123  -0.45141  -0.43443
 Alpha  occ. eigenvalues --   -0.43205  -0.34795
 Alpha virt. eigenvalues --    0.13630   0.15352   0.16535   0.16813   0.19238
 Alpha virt. eigenvalues --    0.19836   0.20745   0.21748   0.21897   0.22895
 Alpha virt. eigenvalues --    0.23044   0.25512   0.26649   0.27006   0.27449

 Mulliken atomic charges:
              1
     1  C   -0.088538
     2  C   -0.185952
     3  C   -0.088326
     4  N   -0.234856
     5  C   -0.088327
     6  C   -0.185944
     7  C   -0.183901
     8  C   -0.310252
     9  H    0.101196
    10  H    0.063447
    11  H    0.101194
    12  H    0.099300
    13  H    0.097615
    14  H    0.099297
    15  H    0.108922
    16  H    0.054789
    17  H    0.093083
    18  H    0.093085
    19  H    0.063448
    20  H    0.097617
    21  H    0.093117
    22  H    0.099991
    23  H    0.099992
 Sum of Mulliken atomic charges =   0.00000

 Dipole moment (field-independent basis, Debye):
    X=             -0.1945    Y=              0.0000    Z=              0.4637  Tot=              0.5029
 Quadrupole moment (field-independent basis, Debye-Ang):
   XX=            -52.4474   YY=            -51.6430   ZZ=            -54.6465
   XY=              0.0000   XZ=              1.2527   YZ=              0.0000

 Normal termination of Gaussian 09 at Mon Mar 21 00:53:40 2016.
