 Gaussian 09, Revision A.01,
 Gaussian 09:  EM64L-G09RevA.01  8-May-2009

 -------------
 # mp2/cc-pVTZ
 -------------

 ------------------------------
 N_Ac_Ala_N_Me_a_a_single_point
 ------------------------------
 Symbolic Z-matrix:
 Charge =  0 Multiplicity = 1

                         Standard orientation:
 ---------------------------------------------------------------------
 Center     Atomic      Atomic             Coordinates (Angstroms)
 Number     Number       Type             X           Y           Z
 ---------------------------------------------------------------------
      1          6           0       -3.344177   -1.168374    0.032128
      2          6           0       -2.316327   -0.085587   -0.259183
      3          7           0       -1.061497   -0.333297    0.216108
      4          6           0        0.050587    0.571539   -0.012050
      5          6           0        0.066913    1.737401    0.998313
      6          8           0       -2.592066    0.945431   -0.881936
      7          6           0        1.337765   -0.258921    0.085894
      8          7           0        2.427413    0.262801   -0.522737
      9          6           0        3.727800   -0.394298   -0.465971
     10          8           0        1.376929   -1.306626    0.706322
     11          1           0       -3.434277   -1.345057    1.109432
     12          1           0       -3.057575   -2.114588   -0.440053
     13          1           0       -4.308821   -0.849099   -0.362342
     14          1           0       -0.055058    0.986061   -1.021839
     15          1           0       -0.830444   -1.202290    0.684491
     16          1           0        2.325259    1.102954   -1.072134
     17          1           0        4.461277    0.237580   -0.969742
     18          1           0        3.695245   -1.371930   -0.957080
     19          1           0        4.034367   -0.545001    0.572725
     20          1           0       -0.876279    2.283951    0.926178
     21          1           0        0.183401    1.357588    2.018017
     22          1           0        0.887225    2.432306    0.788873
 ---------------------------------------------------------------------

 SCF Done:  E(RHF) =  -493.039168138     A.U. after   13 cycles
 E2 =    -0.1883308545D+01 EUMP2 =    -0.49492247668213D+03

 The electronic state is 1-A.
 Alpha  occ. eigenvalues --  -20.52742 -20.51057 -15.59515 -15.57720 -11.35533
 Alpha  occ. eigenvalues --  -11.34836 -11.28696 -11.27080 -11.23452 -11.22856
 Alpha  occ. eigenvalues --   -1.39648  -1.36558  -1.23919  -1.22762  -1.05206
 Alpha  occ. eigenvalues --   -0.98819  -0.96060  -0.88179  -0.80185  -0.78020
 Alpha  occ. eigenvalues --   -0.72777  -0.67157  -0.65577  -0.64189  -0.63167
 Alpha  occ. eigenvalues --   -0.61564  -0.59880  -0.58402  -0.56636  -0.56166
 Alpha  occ. eigenvalues --   -0.56159  -0.54269  -0.52665  -0.52158  -0.49200
 Alpha  occ. eigenvalues --   -0.43435  -0.41883  -0.40665  -0.38562
 Alpha virt. eigenvalues --    0.12122   0.14261   0.15316   0.16503   0.18205
 Alpha virt. eigenvalues --    0.18575   0.19536   0.21004   0.21939   0.22524
 Alpha virt. eigenvalues --    0.22755   0.23509   0.23874   0.25108   0.27910

 Mulliken atomic charges:
              1
     1  C   -0.297645
     2  C    0.336606
     3  N   -0.265801
     4  C    0.017098
     5  C   -0.283571
     6  O   -0.468517
     7  C    0.338143
     8  N   -0.238340
     9  C   -0.145836
    10  O   -0.470076
    11  H    0.103740
    12  H    0.105515
    13  H    0.130489
    14  H    0.132388
    15  H    0.205347
    16  H    0.185132
    17  H    0.093106
    18  H    0.100408
    19  H    0.105357
    20  H    0.129437
    21  H    0.097757
    22  H    0.089262
 Sum of Mulliken atomic charges =   0.00000

 Dipole moment (field-independent basis, Debye):
    X=              2.6871    Y=              0.0937    Z=             -0.1285  Tot=              2.6918
 Quadrupole moment (field-independent basis, Debye-Ang):
   XX=            -56.0004   YY=            -62.8866   ZZ=            -62.0450
   XY=             13.0436   XZ=             -9.7456   YZ=              2.7116

 1\1\GINC-ROCK\SP\RMP2-FC\CC-pVTZ\C6H12N2O2\STYLIANAKIS\21-Mar-2016\0\\
 # mp2/cc-pVTZ\\N_Ac_Ala_N_Me_a_a_single_point\\0,1\C\C,1,1.521107\N,2,
 1.3645,1,115.181\C,3,1.451728,2,122.451,1,177.824,0\C,4,1.542833,3,112
 .097,2,82.564,0\O,2,1.235658,3,122.157,4,-2.114,0\C,4,1.534954,3,107.1
 66,2,-155.43,0\N,7,1.352759,4,115.983,3,158.449,0\C,8,1.458084,7,121.8
 07,4,177.636,0\O,7,1.218257,4,121.651,3,-23.424,0\H,1,1.095408,2,111.0
 23,6,-122.159,0\H,1,1.095635,2,110.822,6,118.042,0\H,1,1.089991,2,108.
 675,6,-1.927,0\H,4,1.09666,3,107.849,2,-36.891,0\H,3,1.013862,2,121.74

 Normal termination of Gaussian 09 at Mon Mar 21 01:44:33 2016.
