 Gaussian 09, Revision A.01,
 Gaussian 09:  EM64L-G09RevA.01  8-May-2009

 -------------
 # mp2/cc-pVTZ
 -------------

 --------------------------------
 N_Ac_Ala_N_Me_g_g_+_single_point
 --------------------------------
 Symbolic Z-matrix:
 Charge =  0 Multiplicity = 1

                         Standard orientation:
 ---------------------------------------------------------------------
 Center     Atomic      Atomic             Coordinates (Angstroms)
 Number     Number       Type             X           Y           Z
 ---------------------------------------------------------------------
      1          6           0       -3.163528   -0.750978   -0.617651
      2          6           0       -1.829018   -0.367278   -0.004687
      3          7           0       -1.141833    0.623433   -0.635312
      4          6           0        0.119470    1.250742   -0.192856
      5          6           0        0.021621    1.848318    1.220468
      6          8           0       -1.409448   -0.935835    1.010157
      7          6           0        1.373983    0.358147   -0.357579
      8          7           0        1.339897   -0.858470    0.230557
      9          6           0        2.479015   -1.761687    0.165745
     10          8           0        2.352336    0.790426   -0.970531
     11          1           0       -3.394894   -0.219398   -1.544729
     12          1           0       -3.951405   -0.547339    0.113586
     13          1           0       -3.164381   -1.827170   -0.809667
     14          1           0        0.294411    2.063525   -0.900378
     15          1           0       -1.535598    0.981182   -1.492909
     16          1           0        0.493068   -1.128474    0.726497
     17          1           0        2.206051   -2.700794    0.650677
     18          1           0        3.350965   -1.334818    0.672703
     19          1           0        2.759671   -1.959889   -0.873412
     20          1           0       -0.786778    2.585427    1.259520
     21          1           0       -0.171143    1.079178    1.970161
     22          1           0        0.961225    2.353511    1.463580
 ---------------------------------------------------------------------

 SCF Done:  E(RHF) =  -493.033542194     A.U. after   14 cycles
 E2 =    -0.1888123391D+01 EUMP2 =    -0.49492166558473D+03

 The electronic state is 1-A.
 Alpha  occ. eigenvalues --  -20.53083 -20.50576 -15.60572 -15.56631 -11.37176
 Alpha  occ. eigenvalues --  -11.33802 -11.29235 -11.25285 -11.25072 -11.22781
 Alpha  occ. eigenvalues --   -1.39133  -1.36254  -1.24737  -1.21197  -1.05809
 Alpha  occ. eigenvalues --   -1.00081  -0.94534  -0.88598  -0.80662  -0.76508
 Alpha  occ. eigenvalues --   -0.72027  -0.70436  -0.65069  -0.63074  -0.62152
 Alpha  occ. eigenvalues --   -0.61117  -0.59978  -0.58618  -0.57707  -0.56577
 Alpha  occ. eigenvalues --   -0.54547  -0.53977  -0.52354  -0.51633  -0.49798
 Alpha  occ. eigenvalues --   -0.44240  -0.43359  -0.39226  -0.37758
 Alpha virt. eigenvalues --    0.11509   0.14916   0.15231   0.15575   0.17223
 Alpha virt. eigenvalues --    0.19522   0.20127   0.21043   0.21691   0.22395
 Alpha virt. eigenvalues --    0.23385   0.23915   0.24838   0.25652   0.28738

 Mulliken atomic charges:
              1
     1  C   -0.262682
     2  C    0.333738
     3  N   -0.252258
     4  C   -0.005127
     5  C   -0.294360
     6  O   -0.495818
     7  C    0.327101
     8  N   -0.254791
     9  C   -0.149842
    10  O   -0.468440
    11  H    0.088600
    12  H    0.120808
    13  H    0.121597
    14  H    0.141637
    15  H    0.193728
    16  H    0.236549
    17  H    0.092858
    18  H    0.092781
    19  H    0.096276
    20  H    0.097782
    21  H    0.125356
    22  H    0.114507
 Sum of Mulliken atomic charges =   0.00000

 Dipole moment (field-independent basis, Debye):
    X=             -4.1931    Y=              0.1030    Z=             -0.9378  Tot=              4.2979
 Quadrupole moment (field-independent basis, Debye-Ang):
   XX=            -62.0486   YY=            -57.9769   ZZ=            -62.5477
   XY=             -7.3615   XZ=             11.2026   YZ=              2.4449

 1\1\GINC-ROCK\SP\RMP2-FC\CC-pVTZ\C6H12N2O2\STYLIANAKIS\21-Mar-2016\0\\
 # mp2/cc-pVTZ\\N_Ac_Ala_N_Me_g_g_+_single_point\\0,1\C\C,1,1.51785\N,2
 ,1.360668,1,116.163\C,3,1.47654,2,127.004,1,175.031,0\C,4,1.537582,3,1
 12.718,2,-56.403,0\O,2,1.23661,3,122.94,4,-4.973,0\C,4,1.548438,3,114.
 538,2,73.099,0\N,7,1.351748,4,116.879,3,-55.353,0\C,8,1.455195,7,121.3
 ,4,-178.419,0\O,7,1.232781,4,119.586,3,126.709,0\H,1,1.093426,2,113.92
 5,6,-176.484,0\H,1,1.094041,2,108.433,6,62.097,0\H,1,1.093188,2,108.69
 2,6,-54.434,0\H,4,1.091699,3,105.01,2,-174.28,0\H,3,1.009211,2,117.058

 Normal termination of Gaussian 09 at Mon Mar 21 02:13:55 2016.
