 Gaussian 09, Revision A.01,
 Gaussian 09:  EM64L-G09RevA.01  8-May-2009

 -------------
 # mp2/cc-pVTZ
 -------------

 ------------------------------
 N_Ac_Gly_N_Me_a_a_single_point
 ------------------------------
 Symbolic Z-matrix:
 Charge =  0 Multiplicity = 1

                         Standard orientation:
 ---------------------------------------------------------------------
 Center     Atomic      Atomic             Coordinates (Angstroms)
 Number     Number       Type             X           Y           Z
 ---------------------------------------------------------------------
      1          6           0        3.400891    0.925632   -0.001105
      2          6           0        2.347951   -0.171214   -0.000482
      3          7           0        1.055784    0.260137    0.001201
      4          6           0       -0.053229   -0.662907    0.001935
      5          6           0       -1.359447    0.134316    0.000751
      6          7           0       -2.494637   -0.608618   -0.000386
      7          6           0       -3.815800    0.008376   -0.001489
      8          8           0        2.630433   -1.369464   -0.000744
      9          8           0       -1.371651    1.365232    0.000704
     10          1           0        3.301159    1.563344   -0.886314
     11          1           0        3.302644    1.562976    0.884538
     12          1           0        4.387309    0.461921   -0.002036
     13          1           0       -0.012934   -1.320304   -0.877142
     14          1           0       -0.013733   -1.318269    0.882604
     15          1           0        0.808461    1.243390    0.001392
     16          1           0       -2.422396   -1.615421   -0.000762
     17          1           0       -4.569253   -0.781007   -0.002631
     18          1           0       -3.951805    0.635296    0.884774
     19          1           0       -3.949935    0.636084   -0.887475
 ---------------------------------------------------------------------

 SCF Done:  E(RHF) =  -453.989291631     A.U. after   14 cycles
 E2 =    -0.1705792723D+01 EUMP2 =    -0.45569508435418D+03

 The electronic state is 1-A.
 Alpha  occ. eigenvalues --  -20.53146 -20.51058 -15.59834 -15.57843 -11.36390
 Alpha  occ. eigenvalues --  -11.34672 -11.28500 -11.27272 -11.23420  -1.39176
 Alpha  occ. eigenvalues --   -1.36812  -1.24078  -1.22674  -1.03022  -0.98399
 Alpha  occ. eigenvalues --   -0.92742  -0.80412  -0.78954  -0.72381  -0.66746
 Alpha  occ. eigenvalues --   -0.66195  -0.65770  -0.63158  -0.62246  -0.59047
 Alpha  occ. eigenvalues --   -0.58467  -0.56540  -0.56161  -0.55012  -0.52963
 Alpha  occ. eigenvalues --   -0.49761  -0.44224  -0.41909  -0.41119  -0.38734
 Alpha virt. eigenvalues --    0.12038   0.14269   0.15417   0.16610   0.17779
 Alpha virt. eigenvalues --    0.18296   0.20990   0.21195   0.21907   0.22547
 Alpha virt. eigenvalues --    0.23696   0.25016   0.27442   0.29840   0.32041

 Mulliken atomic charges:
              1
     1  C   -0.296588
     2  C    0.331706
     3  N   -0.245678
     4  C   -0.054517
     5  C    0.326198
     6  N   -0.231630
     7  C   -0.144601
     8  O   -0.462360
     9  O   -0.470540
    10  H    0.104415
    11  H    0.104424
    12  H    0.130414
    13  H    0.110381
    14  H    0.110325
    15  H    0.203745
    16  H    0.183781
    17  H    0.093557
    18  H    0.103472
    19  H    0.103497
 Sum of Mulliken atomic charges =   0.00000

 Dipole moment (field-independent basis, Debye):
    X=             -2.9897    Y=             -0.1493    Z=             -0.0002  Tot=              2.9934
 Quadrupole moment (field-independent basis, Debye-Ang):
   XX=            -48.5921   YY=            -58.4319   ZZ=            -53.8348
   XY=             16.9635   XZ=              0.0076   YZ=             -0.0036

 1\1\GINC-ROCK\SP\RMP2-FC\CC-pVTZ\C5H10N2O2\STYLIANAKIS\21-Mar-2016\0\\
 # mp2/cc-pVTZ\\N_Ac_Gly_N_Me_a_a_single_point\\0,1\C\C,1,1.520445\N,2,
 1.362264,1,115.37\C,3,1.442886,2,121.769,1,179.998,0\C,4,1.530285,3,10
 8.832,2,-179.878,0\N,5,1.35669,4,115.4,3,179.922,0\C,6,1.458134,5,121.
 764,4,179.995,0\O,2,1.231097,3,121.725,4,-0.039,0\O,5,1.230976,4,121.9
 65,3,-0.071,0\H,1,1.095545,2,110.929,8,120.096,0\H,1,1.095547,2,110.93
 1,8,-120.07,0\H,1,1.089976,2,108.652,8,0.014,0\H,4,1.09844,3,110.748,2
 ,-58.804,0\H,4,1.09847,3,110.759,2,59.068,0\H,3,1.013882,2,122.579,1,0

 Normal termination of Gaussian 09 at Mon Mar 21 03:53:44 2016.
