 Gaussian 09, Revision A.01,
 Gaussian 09:  EM64L-G09RevA.01  8-May-2009

 -------------
 # mp2/cc-pVTZ
 -------------

 --------------------------------------------
 N_Ac_Gly_N_methylamide_g_g_plus_single_point
 --------------------------------------------
 Symbolic Z-matrix:
 Charge =  0 Multiplicity = 1

                         Standard orientation:
 ---------------------------------------------------------------------
 Center     Atomic      Atomic             Coordinates (Angstroms)
 Number     Number       Type             X           Y           Z
 ---------------------------------------------------------------------
      1          6           0        3.103144    0.343069    0.735368
      2          6           0        1.829749    0.192005   -0.072758
      3          7           0        1.130208   -0.962886    0.102443
      4          6           0       -0.085428   -1.269240   -0.648907
      5          6           0       -1.355328   -0.620000   -0.066005
      6          7           0       -1.417241    0.727329   -0.200407
      7          6           0       -2.525403    1.500274    0.339839
      8          8           0        1.450045    1.069221   -0.855539
      9          8           0       -2.235301   -1.299181    0.462786
     10          1           0        3.306471   -0.503648    1.396613
     11          1           0        3.941323    0.463499    0.043078
     12          1           0        3.035988    1.257122    1.331681
     13          1           0        0.063608   -0.941482   -1.682549
     14          1           0       -0.240755   -2.348045   -0.631782
     15          1           0        1.430922   -1.618047    0.808690
     16          1           0       -0.604225    1.199220   -0.586651
     17          1           0       -2.483407    2.510151   -0.072809
     18          1           0       -3.474229    1.034834    0.062076
     19          1           0       -2.484828    1.558327    1.434210
 ---------------------------------------------------------------------

 SCF Done:  E(RHF) =  -453.987977104     A.U. after   14 cycles
 E2 =    -0.1709785968D+01 EUMP2 =    -0.45569776307140D+03

 The electronic state is 1-A.
 Alpha  occ. eigenvalues --  -20.53093 -20.51021 -15.60746 -15.57094 -11.37058
 Alpha  occ. eigenvalues --  -11.34163 -11.28441 -11.25334 -11.25314  -1.39164
 Alpha  occ. eigenvalues --   -1.36600  -1.24710  -1.21568  -1.03854  -0.98117
 Alpha  occ. eigenvalues --   -0.92517  -0.81152  -0.77511  -0.71881  -0.69990
 Alpha  occ. eigenvalues --   -0.67084  -0.63783  -0.62198  -0.61064  -0.59502
 Alpha  occ. eigenvalues --   -0.58336  -0.56931  -0.55868  -0.54047  -0.52913
 Alpha  occ. eigenvalues --   -0.51044  -0.44706  -0.43790  -0.39491  -0.38133
 Alpha virt. eigenvalues --    0.11731   0.15069   0.15464   0.16230   0.17774
 Alpha virt. eigenvalues --    0.18833   0.20424   0.21090   0.22624   0.22926
 Alpha virt. eigenvalues --    0.23986   0.25445   0.28757   0.30491   0.31840

 Mulliken atomic charges:
              1
     1  C   -0.264767
     2  C    0.335523
     3  N   -0.248015
     4  C   -0.102535
     5  C    0.321921
     6  N   -0.246381
     7  C   -0.151555
     8  O   -0.491784
     9  O   -0.459802
    10  H    0.090408
    11  H    0.122132
    12  H    0.119758
    13  H    0.128926
    14  H    0.139535
    15  H    0.194661
    16  H    0.225303
    17  H    0.094663
    18  H    0.109072
    19  H    0.082935
 Sum of Mulliken atomic charges =   0.00000

 Dipole moment (field-independent basis, Debye):
    X=              3.6947    Y=             -0.1239    Z=              1.0225  Tot=              3.8355
 Quadrupole moment (field-independent basis, Debye-Ang):
   XX=            -54.5386   YY=            -54.1808   ZZ=            -54.4546
   XY=            -11.5407   XZ=              7.3687   YZ=              3.6424

 1\1\GINC-ROCK\SP\RMP2-FC\CC-pVTZ\C5H10N2O2\STYLIANAKIS\21-Mar-2016\0\\
 # mp2/cc-pVTZ\\N_Ac_Gly_N_methylamide_g_g_plus_single_point\\0,1\C\C,1
 ,1.515725\N,2,1.361553,1,116.588\C,3,1.461557,2,122.614,1,-177.468,0\C
 ,4,1.540757,3,113.748,2,-82.373,0\N,5,1.35543,4,114.771,3,69.716,0\C,6
 ,1.455106,5,121.735,4,-177.669,0\O,2,1.235488,3,121.727,4,2.165,0\O,5,
 1.230959,4,121.28,3,-110.997,0\H,1,1.093397,2,113.671,8,179.131,0\H,1,
 1.09376,2,108.501,8,-59.436,0\H,1,1.093431,2,108.813,8,57.207,0\H,4,1.
 094556,3,108.026,2,40.148,0\H,4,1.090064,3,108.535,2,158.558,0\H,3,1.0

 Normal termination of Gaussian 09 at Mon Mar 21 04:42:19 2016.
