 Gaussian 09, Revision A.01,
 Gaussian 09:  EM64L-G09RevA.01  8-May-2009

 -------------
 # mp2/cc-pVTZ
 -------------

 --------------------------------------------
 N_Ac_Ala_N_methylamide_g_g_plus_single_point
 --------------------------------------------
 Symbolic Z-matrix:
 Charge =  0 Multiplicity = 1

                         Standard orientation:
 ---------------------------------------------------------------------
 Center     Atomic      Atomic             Coordinates (Angstroms)
 Number     Number       Type             X           Y           Z
 ---------------------------------------------------------------------
      1          6           0       -3.163498   -0.750974   -0.617612
      2          6           0       -1.828993   -0.367225   -0.004676
      3          7           0       -1.141863    0.623543   -0.635270
      4          6           0        0.119491    1.250764   -0.192935
      5          6           0        0.021751    1.848417    1.220381
      6          8           0       -1.409401   -0.935776    1.010175
      7          6           0        1.373982    0.358111   -0.357584
      8          7           0        1.339751   -0.858535    0.230476
      9          6           0        2.478832   -1.761821    0.165757
     10          8           0        2.352443    0.790370   -0.970387
     11          1           0       -3.394799   -0.219748   -1.544907
     12          1           0       -3.951371   -0.546891    0.113523
     13          1           0       -3.164474   -1.827257   -0.809083
     14          1           0        0.294456    2.063515   -0.900490
     15          1           0       -1.535415    0.980926   -1.493121
     16          1           0        0.492831   -1.128501    0.726307
     17          1           0        2.205669   -2.700976    0.650480
     18          1           0        3.350707   -1.335084    0.672959
     19          1           0        2.759698   -1.959867   -0.873374
     20          1           0       -0.786595    2.585585    1.259439
     21          1           0       -0.171050    1.079313    1.970101
     22          1           0        0.961401    2.353554    1.463425
 ---------------------------------------------------------------------

 SCF Done:  E(RHF) =  -493.033539353     A.U. after   14 cycles
 E2 =    -0.1888126852D+01 EUMP2 =    -0.49492166620494D+03

 The electronic state is 1-A.
 Alpha  occ. eigenvalues --  -20.53084 -20.50575 -15.60573 -15.56631 -11.37177
 Alpha  occ. eigenvalues --  -11.33802 -11.29235 -11.25286 -11.25072 -11.22780
 Alpha  occ. eigenvalues --   -1.39133  -1.36254  -1.24738  -1.21197  -1.05809
 Alpha  occ. eigenvalues --   -1.00081  -0.94534  -0.88598  -0.80661  -0.76507
 Alpha  occ. eigenvalues --   -0.72028  -0.70437  -0.65069  -0.63074  -0.62151
 Alpha  occ. eigenvalues --   -0.61117  -0.59978  -0.58618  -0.57708  -0.56576
 Alpha  occ. eigenvalues --   -0.54547  -0.53977  -0.52354  -0.51633  -0.49797
 Alpha  occ. eigenvalues --   -0.44241  -0.43359  -0.39226  -0.37758
 Alpha virt. eigenvalues --    0.11509   0.14916   0.15229   0.15575   0.17224
 Alpha virt. eigenvalues --    0.19521   0.20127   0.21044   0.21692   0.22395
 Alpha virt. eigenvalues --    0.23384   0.23916   0.24838   0.25652   0.28738

 Mulliken atomic charges:
              1
     1  C   -0.262683
     2  C    0.333738
     3  N   -0.252250
     4  C   -0.005118
     5  C   -0.294359
     6  O   -0.495820
     7  C    0.327080
     8  N   -0.254808
     9  C   -0.149843
    10  O   -0.468451
    11  H    0.088611
    12  H    0.120801
    13  H    0.121604
    14  H    0.141633
    15  H    0.193730
    16  H    0.236568
    17  H    0.092857
    18  H    0.092779
    19  H    0.096282
    20  H    0.097783
    21  H    0.125355
    22  H    0.114510
 Sum of Mulliken atomic charges =   0.00000

 Dipole moment (field-independent basis, Debye):
    X=             -4.1935    Y=              0.1025    Z=             -0.9386  Tot=              4.2985
 Quadrupole moment (field-independent basis, Debye-Ang):
   XX=            -62.0510   YY=            -57.9775   ZZ=            -62.5461
   XY=             -7.3598   XZ=             11.2019   YZ=              2.4447

 1\1\GINC-ROCK\SP\RMP2-FC\CC-pVTZ\C6H12N2O2\STYLIANAKIS\21-Mar-2016\0\\
 # mp2/cc-pVTZ\\N_Ac_Ala_N_methylamide_g_g_plus_single_point\\0,1\C\C,1
 ,1.517846\N,2,1.360668,1,116.164\C,3,1.47651,2,127.005,1,175.04,0\C,4,
 1.537597,3,112.717,2,-56.414,0\O,2,1.236621,3,122.94,4,-4.961,0\C,4,1.
 548447,3,114.542,2,73.085,0\N,7,1.351745,4,116.878,3,-55.341,0\C,8,1.4
 55204,7,121.3,4,-178.418,0\O,7,1.232786,4,119.587,3,126.722,0\H,1,1.09
 3425,2,113.93,6,-176.461,0\H,1,1.094053,2,108.429,6,62.123,0\H,1,1.093
 182,2,108.689,6,-54.403,0\H,4,1.091701,3,105.011,2,-174.29,0\H,3,1.009

 Normal termination of Gaussian 09 at Mon Mar 21 03:38:50 2016.
