 Gaussian 09, Revision A.01,
 Gaussian 09:  EM64L-G09RevA.01  8-May-2009

 -------------
 # mp2/cc-pVTZ
 -------------

 ------------------------------------
 N_Ac_Ala_N_Me_g_plus_g__single_point
 ------------------------------------
 Symbolic Z-matrix:
 Charge =  0 Multiplicity = 1

                         Standard orientation:
 ---------------------------------------------------------------------
 Center     Atomic      Atomic             Coordinates (Angstroms)
 Number     Number       Type             X           Y           Z
 ---------------------------------------------------------------------
      1          6           0       -3.119645   -0.623058    0.745662
      2          6           0       -1.857216   -0.405975   -0.065653
      3          7           0       -1.106108    0.682017    0.258145
      4          6           0        0.117288    1.056439   -0.463755
      5          6           0        0.352898    2.559099   -0.357287
      6          8           0       -1.534790   -1.176294   -0.977127
      7          6           0        1.328206    0.251270    0.076206
      8          7           0        1.359206   -1.042407   -0.331908
      9          6           0        2.367052   -1.973762    0.151895
     10          8           0        2.177020    0.759041    0.808058
     11          1           0       -3.975605   -0.617047    0.064841
     12          1           0       -3.276927    0.129823    1.522847
     13          1           0       -3.075046   -1.612900    1.208278
     14          1           0       -0.047912    0.770880   -1.507739
     15          1           0       -1.365133    1.238675    1.060729
     16          1           0        0.539025   -1.396617   -0.817382
     17          1           0        2.152690   -2.316590    1.171990
     18          1           0        3.342627   -1.483399    0.158067
     19          1           0        2.399983   -2.838126   -0.514756
     20          1           0        0.534552    2.854432    0.680334
     21          1           0       -0.509074    3.106066   -0.751329
     22          1           0        1.239787    2.841478   -0.929398
 ---------------------------------------------------------------------

 SCF Done:  E(RHF) =  -493.038244694     A.U. after   13 cycles
 E2 =    -0.1887307916D+01 EUMP2 =    -0.49492555260938D+03

 The electronic state is 1-A.
 Alpha  occ. eigenvalues --  -20.52787 -20.51033 -15.60276 -15.57031 -11.36794
 Alpha  occ. eigenvalues --  -11.34027 -11.28866 -11.25245 -11.25085 -11.22837
 Alpha  occ. eigenvalues --   -1.38838  -1.36664  -1.24632  -1.21508  -1.05749
 Alpha  occ. eigenvalues --   -0.99891  -0.95343  -0.87019  -0.80998  -0.77315
 Alpha  occ. eigenvalues --   -0.71978  -0.68762  -0.67098  -0.63611  -0.61950
 Alpha  occ. eigenvalues --   -0.60971  -0.59822  -0.59015  -0.57946  -0.54989
 Alpha  occ. eigenvalues --   -0.54281  -0.53361  -0.52449  -0.51671  -0.50909
 Alpha  occ. eigenvalues --   -0.44380  -0.43498  -0.39227  -0.38079
 Alpha virt. eigenvalues --    0.12115   0.15075   0.15529   0.16052   0.16878
 Alpha virt. eigenvalues --    0.18829   0.19828   0.20902   0.21423   0.22370
 Alpha virt. eigenvalues --    0.22705   0.24025   0.24339   0.25626   0.29245

 Mulliken atomic charges:
              1
     1  C   -0.267703
     2  C    0.335980
     3  N   -0.253990
     4  C    0.006281
     5  C   -0.289994
     6  O   -0.494294
     7  C    0.324614
     8  N   -0.245574
     9  C   -0.156879
    10  O   -0.463577
    11  H    0.121676
    12  H    0.090431
    13  H    0.119130
    14  H    0.146844
    15  H    0.191392
    16  H    0.222638
    17  H    0.080273
    18  H    0.114516
    19  H    0.095732
    20  H    0.108717
    21  H    0.102849
    22  H    0.110939
 Sum of Mulliken atomic charges =   0.00000

 Dipole moment (field-independent basis, Debye):
    X=             -3.2303    Y=              0.4721    Z=              0.7653  Tot=              3.3531
 Quadrupole moment (field-independent basis, Debye-Ang):
   XX=            -61.4616   YY=            -58.4336   ZZ=            -62.3988
   XY=             -8.0609   XZ=             -9.7908   YZ=             -3.7744

 1\1\GINC-ROCK\SP\RMP2-FC\CC-pVTZ\C6H12N2O2\STYLIANAKIS\21-Mar-2016\0\\
 # mp2/cc-pVTZ\\N_Ac_Ala_N_Me_g_plus_g__single_point\\0,1\C\C,1,1.51627
 3\N,2,1.361152,1,116.525\C,3,1.469023,2,123.119,1,-177.751,0\C,4,1.524
 741,3,110.216,2,153.086,0\O,2,1.236178,3,121.976,4,1.902,0\C,4,1.55118
 5,3,110.289,2,-83.364,0\N,7,1.356878,4,114.081,3,75.275,0\C,8,1.455073
 ,7,121.741,4,-175.502,0\O,7,1.230417,4,122.098,3,-104.813,0\H,1,1.0937
 19,2,108.526,6,-58.914,0\H,1,1.093428,2,113.672,6,179.592,0\H,1,1.0935
 21,2,108.784,6,57.729,0\H,4,1.094869,3,106.048,2,33.704,0\H,3,1.010497

 Normal termination of Gaussian 09 at Mon Mar 21 02:43:14 2016.
