 Gaussian 09, Revision A.01,
 Gaussian 09:  EM64L-G09RevA.01  8-May-2009

 -------------
 # mp2/cc-pVTZ
 -------------

 --------------------------------------
 N_Ac_Ala_N_methylamide_aa_single_point
 --------------------------------------
 Symbolic Z-matrix:
 Charge =  0 Multiplicity = 1

                         Standard orientation:
 ---------------------------------------------------------------------
 Center     Atomic      Atomic             Coordinates (Angstroms)
 Number     Number       Type             X           Y           Z
 ---------------------------------------------------------------------
      1          6           0       -3.360223   -1.145866    0.021626
      2          6           0       -2.311890   -0.083440   -0.259853
      3          7           0       -1.063238   -0.336094    0.222639
      4          6           0        0.052938    0.564009   -0.005501
      5          6           0        0.072277    1.729210    1.005376
      6          8           0       -2.579129    0.944776   -0.883778
      7          6           0        1.338305   -0.272509    0.090788
      8          7           0        2.431714    0.267912   -0.507202
      9          6           0        3.739639   -0.373432   -0.483915
     10          8           0        1.367035   -1.337982    0.708279
     11          1           0       -2.973828   -2.004593    0.577516
     12          1           0       -3.773587   -1.490372   -0.930509
     13          1           0       -4.177289   -0.690648    0.588597
     14          1           0       -0.053137    0.979310   -1.015009
     15          1           0       -0.834992   -1.209016    0.683636
     16          1           0        2.310858    1.098952   -1.067807
     17          1           0        4.521539    0.389727   -0.459197
     18          1           0        3.891766   -1.015751   -1.359285
     19          1           0        3.806870   -0.990918    0.412555
     20          1           0       -0.870062    2.277357    0.934456
     21          1           0        0.189357    1.348736    2.024791
     22          1           0        0.893657    2.422302    0.795073
 ---------------------------------------------------------------------

 SCF Done:  E(RHF) =  -493.038417834     A.U. after   13 cycles
 E2 =    -0.1884780471D+01 EUMP2 =    -0.49492319830524D+03

 The electronic state is 1-A.
 Alpha  occ. eigenvalues --  -20.52817 -20.50743 -15.59778 -15.57921 -11.36030
 Alpha  occ. eigenvalues --  -11.34750 -11.28836 -11.27020 -11.23459 -11.22926
 Alpha  occ. eigenvalues --   -1.38873  -1.36661  -1.23953  -1.22869  -1.05255
 Alpha  occ. eigenvalues --   -0.98867  -0.96113  -0.88247  -0.80214  -0.78146
 Alpha  occ. eigenvalues --   -0.72743  -0.67216  -0.65513  -0.64053  -0.63286
 Alpha  occ. eigenvalues --   -0.61565  -0.59857  -0.58438  -0.56680  -0.56293
 Alpha  occ. eigenvalues --   -0.55828  -0.54248  -0.52700  -0.52143  -0.49076
 Alpha  occ. eigenvalues --   -0.43507  -0.41770  -0.40665  -0.38629
 Alpha virt. eigenvalues --    0.12070   0.14456   0.15230   0.16806   0.18208
 Alpha virt. eigenvalues --    0.18624   0.19455   0.19591   0.22427   0.22774
 Alpha virt. eigenvalues --    0.23068   0.23903   0.24831   0.25451   0.27091

 Mulliken atomic charges:
              1
     1  C   -0.272844
     2  C    0.324120
     3  N   -0.257955
     4  C    0.021715
     5  C   -0.283510
     6  O   -0.477805
     7  C    0.341724
     8  N   -0.240686
     9  C   -0.160830
    10  O   -0.478918
    11  H    0.092452
    12  H    0.115918
    13  H    0.115036
    14  H    0.133072
    15  H    0.207389
    16  H    0.186814
    17  H    0.094430
    18  H    0.092958
    19  H    0.129404
    20  H    0.129673
    21  H    0.098562
    22  H    0.089281
 Sum of Mulliken atomic charges =   0.00000

 Dipole moment (field-independent basis, Debye):
    X=              2.6683    Y=              0.1602    Z=             -0.1336  Tot=              2.6764
 Quadrupole moment (field-independent basis, Debye-Ang):
   XX=            -55.6438   YY=            -63.2423   ZZ=            -62.0678
   XY=             12.9050   XZ=             -9.5143   YZ=              2.8587

 1\1\GINC-ROCK\SP\RMP2-FC\CC-pVTZ\C6H12N2O2\STYLIANAKIS\21-Mar-2016\0\\
 # mp2/cc-pVTZ\\N_Ac_Ala_N_methylamide_aa_single_point\\0,1\C\C,1,1.518
 875\N,2,1.362264,1,115.93\C,3,1.451923,2,122.277,1,177.887,0\C,4,1.542
 706,3,112.019,2,82.912,0\O,2,1.232042,3,122.206,4,-2.305,0\C,4,1.53662
 ,3,107.201,2,-154.996,0\N,7,1.358378,4,115.414,3,159.407,0\C,8,1.45689
 1,7,122.715,4,178.433,0\O,7,1.231809,4,121.453,3,-22.776,0\H,1,1.09349
 3,2,113.555,6,179.513,0\H,1,1.09367,2,108.655,6,57.797,0\H,1,1.093745,
 2,108.696,6,-58.855,0\H,4,1.096738,3,107.76,2,-36.436,0\H,3,1.013217,2

 Normal termination of Gaussian 09 at Mon Mar 21 03:09:22 2016.
