 Gaussian 09, Revision A.01,
 Gaussian 09:  EM64L-G09RevA.01  8-May-2009

 -------------
 # mp2/cc-pVTZ
 -------------

 ------------------------------------
 N_Ac_Gly_N_Me_g_plus_g-_single_point
 ------------------------------------
 Symbolic Z-matrix:
 Charge =  0 Multiplicity = 1

                         Standard orientation:
 ---------------------------------------------------------------------
 Center     Atomic      Atomic             Coordinates (Angstroms)
 Number     Number       Type             X           Y           Z
 ---------------------------------------------------------------------
      1          6           0        3.103145    0.343100    0.735382
      2          6           0        1.829778    0.191988   -0.072781
      3          7           0        1.130230   -0.962893    0.102463
      4          6           0       -0.085425   -1.269275   -0.648836
      5          6           0       -1.355331   -0.619982   -0.065996
      6          7           0       -1.417201    0.727348   -0.200335
      7          6           0       -2.525433    1.500265    0.339815
      8          8           0        1.450092    1.069165   -0.855614
      9          8           0       -2.235378   -1.299132    0.462714
     10          1           0        3.941323    0.463668    0.043120
     11          1           0        3.306529   -0.503648    1.396570
     12          1           0        3.035875    1.257100    1.331767
     13          1           0       -0.240786   -2.348074   -0.631610
     14          1           0        0.063605   -0.941617   -1.682511
     15          1           0        1.430933   -1.618002    0.808765
     16          1           0       -0.604212    1.199236   -0.586632
     17          1           0       -2.485415    1.557589    1.434239
     18          1           0       -3.474276    1.035328    0.061252
     19          1           0       -2.482898    2.510395   -0.072154
 ---------------------------------------------------------------------

 SCF Done:  E(RHF) =  -453.987977548     A.U. after   14 cycles
 E2 =    -0.1709785055D+01 EUMP2 =    -0.45569776260335D+03

 The electronic state is 1-A.
 Alpha  occ. eigenvalues --  -20.53093 -20.51021 -15.60746 -15.57094 -11.37058
 Alpha  occ. eigenvalues --  -11.34163 -11.28441 -11.25335 -11.25314  -1.39164
 Alpha  occ. eigenvalues --   -1.36600  -1.24710  -1.21568  -1.03854  -0.98117
 Alpha  occ. eigenvalues --   -0.92517  -0.81152  -0.77511  -0.71881  -0.69990
 Alpha  occ. eigenvalues --   -0.67083  -0.63783  -0.62198  -0.61064  -0.59502
 Alpha  occ. eigenvalues --   -0.58336  -0.56931  -0.55868  -0.54047  -0.52913
 Alpha  occ. eigenvalues --   -0.51044  -0.44706  -0.43790  -0.39491  -0.38133
 Alpha virt. eigenvalues --    0.11731   0.15069   0.15465   0.16229   0.17774
 Alpha virt. eigenvalues --    0.18834   0.20424   0.21089   0.22624   0.22926
 Alpha virt. eigenvalues --    0.23987   0.25445   0.28757   0.30491   0.31841

 Mulliken atomic charges:
              1
     1  C   -0.264768
     2  C    0.335521
     3  N   -0.248011
     4  C   -0.102534
     5  C    0.321915
     6  N   -0.246371
     7  C   -0.151534
     8  O   -0.491784
     9  O   -0.459802
    10  H    0.122136
    11  H    0.090408
    12  H    0.119755
    13  H    0.139537
    14  H    0.128925
    15  H    0.194658
    16  H    0.225298
    17  H    0.082957
    18  H    0.109033
    19  H    0.094659
 Sum of Mulliken atomic charges =   0.00000

 Dipole moment (field-independent basis, Debye):
    X=              3.6947    Y=             -0.1238    Z=              1.0229  Tot=              3.8356
 Quadrupole moment (field-independent basis, Debye-Ang):
   XX=            -54.5401   YY=            -54.1801   ZZ=            -54.4544
   XY=            -11.5408   XZ=              7.3690   YZ=              3.6421

 1\1\GINC-ROCK\SP\RMP2-FC\CC-pVTZ\C5H10N2O2\STYLIANAKIS\21-Mar-2016\0\\
 # mp2/cc-pVTZ\\N_Ac_Gly_N_Me_g_plus_g-_single_point\\0,1\C\C,1,1.51572
 6\N,2,1.361553,1,116.588\C,3,1.461554,2,122.615,1,-177.472,0\C,4,1.540
 761,3,113.75,2,-82.37,0\N,5,1.355423,4,114.773,3,69.708,0\C,6,1.455109
 ,5,121.734,4,-177.673,0\O,2,1.235488,3,121.727,4,2.162,0\O,5,1.23096,4
 ,121.28,3,-111.005,0\H,1,1.093758,2,108.501,8,-59.427,0\H,1,1.093397,2
 ,113.671,8,179.139,0\H,1,1.093433,2,108.812,8,57.216,0\H,4,1.090064,3,
 108.535,2,158.562,0\H,4,1.094556,3,108.026,2,40.152,0\H,3,1.009184,2,1

 Normal termination of Gaussian 09 at Mon Mar 21 04:10:36 2016.
