 Gaussian 09, Revision A.01,
 Gaussian 09:  EM64L-G09RevA.01  8-May-2009

 -------------
 # mp2/cc-pVTZ
 -------------

 --------------------------------------
 N_Ac_Gly_N_methylamide_aa_single_point
 --------------------------------------
 Symbolic Z-matrix:
 Charge =  0 Multiplicity = 1

                         Standard orientation:
 ---------------------------------------------------------------------
 Center     Atomic      Atomic             Coordinates (Angstroms)
 Number     Number       Type             X           Y           Z
 ---------------------------------------------------------------------
      1          6           0       -3.401364    0.925257    0.000530
      2          6           0       -2.348053   -0.171198    0.000091
      3          7           0       -1.056004    0.260446   -0.000871
      4          6           0        0.053201   -0.662487   -0.000939
      5          6           0        1.359614    0.134428   -0.000228
      6          7           0        2.494638   -0.608755    0.000172
      7          6           0        3.815882    0.008089    0.000668
      8          8           0       -2.630279   -1.369515    0.000547
      9          8           0        1.372305    1.365379   -0.000163
     10          1           0       -3.302223    1.563000    0.885722
     11          1           0       -3.303223    1.562748   -0.884953
     12          1           0       -4.387607    0.461223    0.001171
     13          1           0        0.012864   -1.319245    0.878537
     14          1           0        0.013529   -1.318464   -0.881045
     15          1           0       -0.808959    1.243704   -0.000793
     16          1           0        2.422196   -1.615507    0.000094
     17          1           0        4.569264   -0.781320    0.000169
     18          1           0        3.950928    0.635881   -0.885022
     19          1           0        3.950894    0.634705    0.887207
 ---------------------------------------------------------------------

 SCF Done:  E(RHF) =  -453.989298498     A.U. after   14 cycles
 E2 =    -0.1705786121D+01 EUMP2 =    -0.45569508461954D+03

 The electronic state is 1-A.
 Alpha  occ. eigenvalues --  -20.53144 -20.51059 -15.59832 -15.57846 -11.36390
 Alpha  occ. eigenvalues --  -11.34673 -11.28501 -11.27269 -11.23419  -1.39172
 Alpha  occ. eigenvalues --   -1.36813  -1.24076  -1.22675  -1.03024  -0.98401
 Alpha  occ. eigenvalues --   -0.92744  -0.80412  -0.78957  -0.72383  -0.66745
 Alpha  occ. eigenvalues --   -0.66195  -0.65772  -0.63158  -0.62248  -0.59048
 Alpha  occ. eigenvalues --   -0.58467  -0.56541  -0.56161  -0.55013  -0.52962
 Alpha  occ. eigenvalues --   -0.49761  -0.44222  -0.41911  -0.41118  -0.38736
 Alpha virt. eigenvalues --    0.12039   0.14268   0.15418   0.16611   0.17780
 Alpha virt. eigenvalues --    0.18296   0.20991   0.21192   0.21908   0.22546
 Alpha virt. eigenvalues --    0.23696   0.25016   0.27443   0.29840   0.32041

 Mulliken atomic charges:
              1
     1  C   -0.296617
     2  C    0.331722
     3  N   -0.245693
     4  C   -0.054465
     5  C    0.326134
     6  N   -0.231641
     7  C   -0.144621
     8  O   -0.462374
     9  O   -0.470560
    10  H    0.104426
    11  H    0.104434
    12  H    0.130423
    13  H    0.110401
    14  H    0.110353
    15  H    0.203727
    16  H    0.183774
    17  H    0.093560
    18  H    0.103533
    19  H    0.103483
 Sum of Mulliken atomic charges =   0.00000

 Dipole moment (field-independent basis, Debye):
    X=              2.9868    Y=             -0.1497    Z=             -0.0007  Tot=              2.9906
 Quadrupole moment (field-independent basis, Debye-Ang):
   XX=            -48.5896   YY=            -58.4335   ZZ=            -53.8347
   XY=            -16.9666   XZ=              0.0028   YZ=              0.0029

 1\1\GINC-ROCK\SP\RMP2-FC\CC-pVTZ\C5H10N2O2\STYLIANAKIS\21-Mar-2016\0\\
 # mp2/cc-pVTZ\\N_Ac_Gly_N_methylamide_aa_single_point\\0,1\C\C,1,1.520
 42\N,2,1.362243,1,115.377\C,3,1.442963,2,121.764,1,179.979,0\C,4,1.530
 29,3,108.854,2,-179.925,0\N,5,1.356688,4,115.401,3,179.982,0\C,6,1.458
 143,5,121.758,4,179.991,0\O,2,1.231104,3,121.726,4,-0.022,0\O,5,1.2310
 16,4,121.974,3,-0.025,0\H,1,1.095495,2,110.938,8,120.076,0\H,1,1.09549
 4,2,110.938,8,-120.09,0\H,1,1.089956,2,108.653,8,-0.006,0\H,4,1.098379
 ,3,110.743,2,-58.849,0\H,4,1.098393,3,110.748,2,59.007,0\H,3,1.013818,

 Normal termination of Gaussian 09 at Mon Mar 21 04:25:29 2016.
