 Gaussian 09, Revision A.01,
 Gaussian 09:  EM64L-G09RevA.01  8-May-2009

 -------------
 # mp2/cc-pVTZ
 -------------

 -------------------------------------
 N_methyl_piperidinium_eq_single_point
 -------------------------------------
 Symbolic Z-matrix:
 Charge =  1 Multiplicity = 1

                         Standard orientation:
 ---------------------------------------------------------------------
 Center     Atomic      Atomic             Coordinates (Angstroms)
 Number     Number       Type             X           Y           Z
 ---------------------------------------------------------------------
      1          6           0        1.922633    0.000000    0.261238
      2          6           0        1.190231   -1.262277   -0.215079
      3          6           0       -0.278321   -1.257151    0.204084
      4          7           0       -0.980095   -0.000002   -0.289339
      5          6           0       -0.278328    1.257148    0.204086
      6          6           0        1.190224    1.262282   -0.215077
      7          6           0       -2.444310   -0.000002    0.049936
      8          1           0       -0.830763   -2.107665   -0.202647
      9          1           0       -0.391923   -1.254619    1.292404
     10          1           0       -0.391929    1.254612    1.292404
     11          1           0       -0.830751    2.107671   -0.202650
     12          1           0        1.260890   -1.355969   -1.307442
     13          1           0        1.649408   -2.165171    0.199790
     14          1           0        1.649413    2.165172    0.199786
     15          1           0        1.260883    1.355976   -1.307442
     16          1           0        1.987933    0.000003    1.356894
     17          1           0        2.949632    0.000000   -0.114151
     18          1           0       -2.906406    0.894256   -0.369846
     19          1           0       -2.906406   -0.894259   -0.369844
     20          1           0       -2.549039    0.000008    1.135377
     21          1           0       -0.903054    0.000002   -1.312385
 ---------------------------------------------------------------------

 SCF Done:  E(RHF) =  -289.708934449     A.U. after   11 cycles
 E2 =    -0.1243077616D+01 EUMP2 =    -0.29095201206503D+03

 The electronic state is 1-A.
 Alpha  occ. eigenvalues --  -15.85756 -11.45249 -11.45248 -11.45086 -11.38895
 Alpha  occ. eigenvalues --  -11.38895 -11.37585  -1.48941  -1.25078  -1.20805
 Alpha  occ. eigenvalues --   -1.13815  -1.06423  -1.03723  -0.96959  -0.87391
 Alpha  occ. eigenvalues --   -0.84878  -0.82973  -0.79397  -0.77173  -0.75217
 Alpha  occ. eigenvalues --   -0.73474  -0.72865  -0.71585  -0.70186  -0.67537
 Alpha  occ. eigenvalues --   -0.63039  -0.62570  -0.62361
 Alpha virt. eigenvalues --   -0.03458  -0.00530   0.01049   0.01267   0.03651
 Alpha virt. eigenvalues --    0.05184   0.05327   0.06179   0.07142   0.07489
 Alpha virt. eigenvalues --    0.08673   0.09214   0.10621   0.11371   0.13049

 Mulliken atomic charges:
              1
     1  C   -0.201475
     2  C   -0.223995
     3  C   -0.136666
     4  N    0.005176
     5  C   -0.136667
     6  C   -0.223998
     7  C   -0.198814
     8  H    0.167832
     9  H    0.154120
    10  H    0.154121
    11  H    0.167832
    12  H    0.132359
    13  H    0.160120
    14  H    0.160121
    15  H    0.132358
    16  H    0.127525
    17  H    0.156918
    18  H    0.152891
    19  H    0.152892
    20  H    0.148890
    21  H    0.148459
 Sum of Mulliken atomic charges =   1.00000

 Dipole moment (field-independent basis, Debye):
    X=             -2.9627    Y=              0.0000    Z=             -0.6361  Tot=              3.0302
 Quadrupole moment (field-independent basis, Debye-Ang):
   XX=            -29.9120   YY=            -36.4936   ZZ=            -39.5452
   XY=              0.0000   XZ=              0.9015   YZ=              0.0000

 Normal termination of Gaussian 09 at Mon Mar 21 06:26:20 2016.
