 Gaussian 09, Revision A.01,
 Gaussian 09:  EM64L-G09RevA.01  8-May-2009

 -------------
 # mp2/cc-pVTZ
 -------------

 --------------------------------
 N_methylacetamide_E_single_point
 --------------------------------
 Symbolic Z-matrix:
 Charge =  0 Multiplicity = 1

                         Standard orientation:
 ---------------------------------------------------------------------
 Center     Atomic      Atomic             Coordinates (Angstroms)
 Number     Number       Type             X           Y           Z
 ---------------------------------------------------------------------
      1          6           0       -0.742304    1.353814   -0.000038
      2          6           0       -0.621274   -0.160496   -0.000021
      3          7           0        0.649280   -0.672811   -0.000260
      4          6           0        1.897313    0.075442    0.000120
      5          8           0       -1.603514   -0.899072    0.000120
      6          1           0        0.685690   -1.683265   -0.000015
      7          1           0       -0.263425    1.790317   -0.883641
      8          1           0       -1.800946    1.611891   -0.000161
      9          1           0       -0.263664    1.790282    0.883715
     10          1           0        2.725719   -0.635550   -0.000185
     11          1           0        1.998686    0.708383   -0.889384
     12          1           0        1.998680    0.707632    0.890169
 ---------------------------------------------------------------------

 SCF Done:  E(RHF) =  -247.094056083     A.U. after   12 cycles
 E2 =    -0.9512598225D+00 EUMP2 =    -0.24804531590562D+03

 The electronic state is 1-A.
 Alpha  occ. eigenvalues --  -20.50735 -15.58064 -11.34686 -11.27739 -11.23670
 Alpha  occ. eigenvalues --   -1.36607  -1.22337  -1.00372  -0.95363  -0.77997
 Alpha  occ. eigenvalues --   -0.67167  -0.66280  -0.63864  -0.58031  -0.57502
 Alpha  occ. eigenvalues --   -0.55995  -0.55386  -0.51066  -0.41609  -0.38623
 Alpha virt. eigenvalues --    0.12437   0.15713   0.17559   0.18414   0.18929
 Alpha virt. eigenvalues --    0.21391   0.23737   0.27166   0.28233   0.30619
 Alpha virt. eigenvalues --    0.34779   0.37925   0.38426   0.40899   0.42991

 Mulliken atomic charges:
              1
     1  C   -0.307321
     2  C    0.317395
     3  N   -0.224305
     4  C   -0.160254
     5  O   -0.443177
     6  H    0.184736
     7  H    0.101604
     8  H    0.141092
     9  H    0.101598
    10  H    0.112838
    11  H    0.087903
    12  H    0.087891
 Sum of Mulliken atomic charges =   0.00000

 Dipole moment (field-independent basis, Debye):
    X=              3.9887    Y=              1.9203    Z=              0.0004  Tot=              4.4269
 Quadrupole moment (field-independent basis, Debye-Ang):
   XX=            -34.0228   YY=            -29.6729   ZZ=            -31.1937
   XY=             -5.2881   XZ=              0.0011   YZ=             -0.0005

 Normal termination of Gaussian 09 at Mon Mar 21 05:59:56 2016.
