 Gaussian 09, Revision A.01,
 Gaussian 09:  EM64L-G09RevA.01  8-May-2009

 -------------
 # mp2/cc-pVTZ
 -------------

 ------------------------------
 N_Me_ethylamine_a_single_point
 ------------------------------
 Symbolic Z-matrix:
 Charge =  0 Multiplicity = 1

                         Standard orientation:
 ---------------------------------------------------------------------
 Center     Atomic      Atomic             Coordinates (Angstroms)
 Number     Number       Type             X           Y           Z
 ---------------------------------------------------------------------
      1          6           0        1.905669   -0.143420   -0.029364
      2          6           0        0.524832    0.503657    0.051619
      3          7           0       -0.537405   -0.487146   -0.110996
      4          6           0       -1.880861    0.072709   -0.007420
      5          1           0        0.414591    1.241419   -0.754156
      6          1           0        0.431860    1.064828    1.002637
      7          1           0        2.694133    0.610455    0.066349
      8          1           0        2.048038   -0.874397    0.776360
      9          1           0       -0.418555   -1.228454    0.575399
     10          1           0        2.032895   -0.663356   -0.983970
     11          1           0       -2.620559   -0.730334   -0.079950
     12          1           0       -2.064804    0.632216    0.928868
     13          1           0       -2.053608    0.759974   -0.843574
 ---------------------------------------------------------------------

 SCF Done:  E(RHF) =  -173.342484710     A.U. after   11 cycles
 E2 =    -0.7514684966D+00 EUMP2 =    -0.17409395320710D+03

 The electronic state is 1-A.
 Alpha  occ. eigenvalues --  -15.53597 -11.24556 -11.24006 -11.21271  -1.19554
 Alpha  occ. eigenvalues --   -1.00334  -0.88941  -0.81855  -0.65321  -0.60909
 Alpha  occ. eigenvalues --   -0.60483  -0.56800  -0.52939  -0.50089  -0.48779
 Alpha  occ. eigenvalues --   -0.48482  -0.36475
 Alpha virt. eigenvalues --    0.14184   0.15967   0.17363   0.19796   0.21636
 Alpha virt. eigenvalues --    0.22004   0.23929   0.24479   0.25735   0.29761
 Alpha virt. eigenvalues --    0.33567   0.35156   0.38181   0.40577   0.41186

 Mulliken atomic charges:
              1
     1  C   -0.275055
     2  C   -0.032466
     3  N   -0.272294
     4  C   -0.163651
     5  H    0.079639
     6  H    0.049814
     7  H    0.089931
     8  H    0.078796
     9  H    0.115384
    10  H    0.099303
    11  H    0.095063
    12  H    0.050358
    13  H    0.085177
 Sum of Mulliken atomic charges =   0.00000

 Dipole moment (field-independent basis, Debye):
    X=             -0.0523    Y=              0.2564    Z=              0.9238  Tot=              0.9601
 Quadrupole moment (field-independent basis, Debye-Ang):
   XX=            -26.8593   YY=            -27.3387   ZZ=            -28.0532
   XY=              0.3088   XZ=             -0.3001   YZ=             -1.8685

 Normal termination of Gaussian 09 at Mon Mar 21 04:45:43 2016.
