 Gaussian 09, Revision A.01,
 Gaussian 09:  EM64L-G09RevA.01  8-May-2009

 -------------
 # mp2/cc-pVTZ
 -------------

 -------------------------------
 N_Me_ethylamine_g-_single_point
 -------------------------------
 Symbolic Z-matrix:
 Charge =  0 Multiplicity = 1

                         Standard orientation:
 ---------------------------------------------------------------------
 Center     Atomic      Atomic             Coordinates (Angstroms)
 Number     Number       Type             X           Y           Z
 ---------------------------------------------------------------------
      1          6           0       -1.583102   -0.520203   -0.117853
      2          6           0       -0.635875    0.611866    0.285772
      3          7           0        0.658548    0.529821   -0.396425
      4          6           0        1.549115   -0.510359    0.111547
      5          1           0       -0.521772    0.614551    1.387914
      6          1           0       -1.089408    1.571098    0.010709
      7          1           0       -2.556761   -0.393767    0.368504
      8          1           0       -1.731743   -0.525146   -1.202416
      9          1           0        1.125476    1.429617   -0.340914
     10          1           0       -1.195199   -1.501069    0.176485
     11          1           0        2.524776   -0.421460   -0.375541
     12          1           0        1.701837   -0.469975    1.206628
     13          1           0        1.152126   -1.500417   -0.133188
 ---------------------------------------------------------------------

 SCF Done:  E(RHF) =  -173.340573203     A.U. after   12 cycles
 E2 =    -0.7521418712D+00 EUMP2 =    -0.17409271507457D+03

 The electronic state is 1-A.
 Alpha  occ. eigenvalues --  -15.53597 -11.24612 -11.23956 -11.20902  -1.19379
 Alpha  occ. eigenvalues --   -0.99885  -0.90256  -0.80062  -0.66315  -0.62383
 Alpha  occ. eigenvalues --   -0.58860  -0.55389  -0.53864  -0.50553  -0.49016
 Alpha  occ. eigenvalues --   -0.47386  -0.36441
 Alpha virt. eigenvalues --    0.13901   0.16737   0.17184   0.19276   0.22033
 Alpha virt. eigenvalues --    0.22324   0.23629   0.24364   0.26271   0.30402
 Alpha virt. eigenvalues --    0.33616   0.35350   0.38844   0.40894   0.41145

 Mulliken atomic charges:
              1
     1  C   -0.274980
     2  C   -0.053493
     3  N   -0.275385
     4  C   -0.167104
     5  H    0.054330
     6  H    0.087216
     7  H    0.092106
     8  H    0.096440
     9  H    0.121084
    10  H    0.084746
    11  H    0.096735
    12  H    0.050972
    13  H    0.087334
 Sum of Mulliken atomic charges =   0.00000

 Dipole moment (field-independent basis, Debye):
    X=              0.2648    Y=              0.4001    Z=              0.8686  Tot=              0.9923
 Quadrupole moment (field-independent basis, Debye-Ang):
   XX=            -26.2855   YY=            -25.9230   ZZ=            -29.6357
   XY=              0.3096   XZ=              0.2078   YZ=              0.1712

 Normal termination of Gaussian 09 at Mon Mar 21 04:49:11 2016.
