 Gaussian 09, Revision A.01,
 Gaussian 09:  EM64L-G09RevA.01  8-May-2009

 -------------
 # mp2/cc-pVTZ
 -------------

 ------------------------------------
 N_methylformamidine_cis_single_point
 ------------------------------------
 Symbolic Z-matrix:
 Charge =  0 Multiplicity = 1

                         Standard orientation:
 ---------------------------------------------------------------------
 Center     Atomic      Atomic             Coordinates (Angstroms)
 Number     Number       Type             X           Y           Z
 ---------------------------------------------------------------------
      1          6           0       -1.440712   -0.434724    0.000008
      2          7           0       -0.624484    0.771305   -0.000019
      3          6           0        0.645972    0.625639    0.000010
      4          7           0        1.370813   -0.545222   -0.000011
      5          1           0        1.270887    1.520210    0.000040
      6          1           0        2.377091   -0.524315    0.000031
      7          1           0        0.923087   -1.447131   -0.000009
      8          1           0       -2.496862   -0.154736   -0.000093
      9          1           0       -1.264965   -1.061112   -0.890572
     10          1           0       -1.265101   -1.060980    0.890708
 ---------------------------------------------------------------------

 SCF Done:  E(RHF) =  -188.175041308     A.U. after   13 cycles
 E2 =    -0.7567233142D+00 EUMP2 =    -0.18893176462205D+03

 The electronic state is 1-A.
 Alpha  occ. eigenvalues --  -15.57787 -15.52003 -11.30468 -11.23685  -1.25458
 Alpha  occ. eigenvalues --   -1.15044  -0.93688  -0.79560  -0.72277  -0.65873
 Alpha  occ. eigenvalues --   -0.59203  -0.58537  -0.52827  -0.49773  -0.39298
 Alpha  occ. eigenvalues --   -0.34912
 Alpha virt. eigenvalues --    0.12895   0.15960   0.18375   0.18552   0.21792
 Alpha virt. eigenvalues --    0.24147   0.24265   0.27979   0.35426   0.38955
 Alpha virt. eigenvalues --    0.41494   0.43202   0.47470   0.50268   0.53069

 Mulliken atomic charges:
              1
     1  C   -0.163631
     2  N   -0.327322
     3  C    0.081676
     4  N   -0.348192
     5  H    0.143831
     6  H    0.187061
     7  H    0.197735
     8  H    0.105202
     9  H    0.061811
    10  H    0.061828
 Sum of Mulliken atomic charges =   0.00000

 Dipole moment (field-independent basis, Debye):
    X=              2.5786    Y=             -2.2703    Z=              0.0002  Tot=              3.4356
 Quadrupole moment (field-independent basis, Debye-Ang):
   XX=            -20.4796   YY=            -25.3289   ZZ=            -27.2878
   XY=              1.9840   XZ=              0.0002   YZ=              0.0000

 Normal termination of Gaussian 09 at Mon Mar 21 06:08:29 2016.
