 Gaussian 09, Revision A.01,
 Gaussian 09:  EM64L-G09RevA.01  8-May-2009

 -------------
 # mp2/cc-pVTZ
 -------------

 --------------------------------
 N_methylformamide_Z_single_point
 --------------------------------
 Symbolic Z-matrix:
 Charge =  0 Multiplicity = 1

                         Standard orientation:
 ---------------------------------------------------------------------
 Center     Atomic      Atomic             Coordinates (Angstroms)
 Number     Number       Type             X           Y           Z
 ---------------------------------------------------------------------
      1          6           0       -1.435439   -0.440609    0.000141
      2          7           0       -0.472753    0.654063   -0.000608
      3          6           0        0.867870    0.435578    0.000149
      4          8           0        1.389532   -0.670918    0.000004
      5          1           0       -0.801523    1.608396    0.002233
      6          1           0       -2.443653   -0.023020   -0.016122
      7          1           0       -1.295267   -1.078318   -0.877871
      8          1           0       -1.316739   -1.061059    0.893814
      9          1           0        1.455610    1.373087    0.000428
 ---------------------------------------------------------------------

 SCF Done:  E(RHF) =  -208.040568733     A.U. after   12 cycles
 E2 =    -0.7779350495D+00 EUMP2 =    -0.20881850378247D+03

 The electronic state is 1-A.
 Alpha  occ. eigenvalues --  -20.51934 -15.59155 -11.34689 -11.26711  -1.37315
 Alpha  occ. eigenvalues --   -1.23071  -0.96466  -0.80673  -0.73977  -0.63885
 Alpha  occ. eigenvalues --   -0.62359  -0.58981  -0.55726  -0.52708  -0.42847
 Alpha  occ. eigenvalues --   -0.39532
 Alpha virt. eigenvalues --    0.12761   0.15615   0.17923   0.18762   0.21407
 Alpha virt. eigenvalues --    0.23613   0.28619   0.33114   0.38169   0.38801
 Alpha virt. eigenvalues --    0.42803   0.45852   0.51229   0.51933   0.55356

 Mulliken atomic charges:
              1
     1  C   -0.140157
     2  N   -0.222682
     3  C    0.252064
     4  O   -0.445631
     5  H    0.182207
     6  H    0.090029
     7  H    0.103617
     8  H    0.102280
     9  H    0.078275
 Sum of Mulliken atomic charges =   0.00000

 Dipole moment (field-independent basis, Debye):
    X=             -2.9725    Y=              3.1000    Z=              0.0033  Tot=              4.2949
 Quadrupole moment (field-independent basis, Debye-Ang):
   XX=            -25.5332   YY=            -22.2203   ZZ=            -24.8832
   XY=              3.2955   XZ=              0.0007   YZ=              0.0130

 Normal termination of Gaussian 09 at Mon Mar 21 06:06:42 2016.
