 Gaussian 09, Revision A.01,
 Gaussian 09:  EM64L-G09RevA.01  8-May-2009

 -------------
 # mp2/cc-pVTZ
 -------------

 ---------------------------------
 N_Me_piperidinium_ax_single_point
 ---------------------------------
 Symbolic Z-matrix:
 Charge =  1 Multiplicity = 1

                         Standard orientation:
 ---------------------------------------------------------------------
 Center     Atomic      Atomic             Coordinates (Angstroms)
 Number     Number       Type             X           Y           Z
 ---------------------------------------------------------------------
      1          6           0        1.814880    0.000025    0.153779
      2          6           0        0.960216    1.265939    0.320404
      3          6           0       -0.242730    1.260260   -0.618846
      4          7           0       -1.091297   -0.000010   -0.445616
      5          6           0       -0.242706   -1.260276   -0.618816
      6          6           0        0.960276   -1.265914    0.320390
      7          6           0       -1.901376   -0.000013    0.823203
      8          1           0       -0.907906    2.112156   -0.459789
      9          1           0        0.076692    1.258252   -1.665346
     10          1           0        0.076701   -1.258298   -1.665321
     11          1           0       -0.907849   -2.112189   -0.459724
     12          1           0        0.632405    1.377429    1.360629
     13          1           0        1.544209    2.162862    0.089948
     14          1           0        1.544297   -2.162812    0.089907
     15          1           0        0.632490   -1.377425    1.360621
     16          1           0        2.282845    0.000019   -0.839369
     17          1           0        2.629439    0.000035    0.883144
     18          1           0       -2.526357    0.893698    0.837665
     19          1           0       -2.526544   -0.893597    0.837541
     20          1           0       -1.235526   -0.000151    1.683076
     21          1           0       -1.767181   -0.000032   -1.214350
 ---------------------------------------------------------------------

 SCF Done:  E(RHF) =  -289.704463107     A.U. after   11 cycles
 E2 =    -0.1244101052D+01 EUMP2 =    -0.29094856415858D+03

 The electronic state is 1-A.
 Alpha  occ. eigenvalues --  -15.85732 -11.45308 -11.45307 -11.45009 -11.38834
 Alpha  occ. eigenvalues --  -11.38834 -11.37602  -1.48618  -1.24822  -1.20723
 Alpha  occ. eigenvalues --   -1.14938  -1.05696  -1.03571  -0.93399  -0.92001
 Alpha  occ. eigenvalues --   -0.83825  -0.83781  -0.79524  -0.75799  -0.75737
 Alpha  occ. eigenvalues --   -0.72874  -0.72683  -0.71431  -0.70958  -0.67370
 Alpha  occ. eigenvalues --   -0.62850  -0.62544  -0.62332
 Alpha virt. eigenvalues --   -0.03966  -0.00431   0.01354   0.01947   0.03783
 Alpha virt. eigenvalues --    0.04079   0.04568   0.06583   0.06690   0.07081
 Alpha virt. eigenvalues --    0.09602   0.09682   0.10898   0.11656   0.13294

 Mulliken atomic charges:
              1
     1  C   -0.202425
     2  C   -0.229419
     3  C   -0.152167
     4  N    0.003893
     5  C   -0.152170
     6  C   -0.229416
     7  C   -0.212794
     8  H    0.173701
     9  H    0.163211
    10  H    0.163210
    11  H    0.173702
    12  H    0.133559
    13  H    0.164583
    14  H    0.164583
    15  H    0.133554
    16  H    0.125491
    17  H    0.156268
    18  H    0.155228
    19  H    0.155230
    20  H    0.147233
    21  H    0.164943
 Sum of Mulliken atomic charges =   1.00000

 Dipole moment (field-independent basis, Debye):
    X=             -3.1234    Y=             -0.0001    Z=             -1.0924  Tot=              3.3089
 Quadrupole moment (field-independent basis, Debye-Ang):
   XX=            -31.4018   YY=            -36.4923   ZZ=            -38.0296
   XY=              0.0000   XZ=              0.7660   YZ=              0.0001

 Normal termination of Gaussian 09 at Mon Mar 21 05:39:47 2016.
