 Gaussian 09, Revision A.01,
 Gaussian 09:  EM64L-G09RevA.01  8-May-2009

 -------------
 # mp2/cc-pVTZ
 -------------

 -------------------------------
 N_Me_ethylamine_g+_single_point
 -------------------------------
 Symbolic Z-matrix:
 Charge =  0 Multiplicity = 1

                         Standard orientation:
 ---------------------------------------------------------------------
 Center     Atomic      Atomic             Coordinates (Angstroms)
 Number     Number       Type             X           Y           Z
 ---------------------------------------------------------------------
      1          6           0       -1.566751    0.543515   -0.117721
      2          6           0       -0.645643   -0.616477    0.297838
      3          7           0        0.700714   -0.628241   -0.275513
      4          6           0        1.561523    0.484405    0.114715
      5          1           0       -1.122192   -1.567885    0.031134
      6          1           0       -0.534490   -0.623007    1.390378
      7          1           0       -2.552728    0.437032    0.349969
      8          1           0       -1.162817    1.516482    0.180972
      9          1           0        0.650083   -0.698498   -1.288380
     10          1           0       -1.712998    0.558534   -1.204824
     11          1           0        2.548572    0.351697   -0.339299
     12          1           0        1.191970    1.486541   -0.163183
     13          1           0        1.694821    0.468133    1.202830
 ---------------------------------------------------------------------

 SCF Done:  E(RHF) =  -173.339843833     A.U. after   12 cycles
 E2 =    -0.7519991710D+00 EUMP2 =    -0.17409184300424D+03

 The electronic state is 1-A.
 Alpha  occ. eigenvalues --  -15.53452 -11.24558 -11.23932 -11.21263  -1.19231
 Alpha  occ. eigenvalues --   -0.99824  -0.90187  -0.81181  -0.65710  -0.61451
 Alpha  occ. eigenvalues --   -0.59076  -0.55367  -0.53904  -0.51822  -0.49008
 Alpha  occ. eigenvalues --   -0.47836  -0.35969
 Alpha virt. eigenvalues --    0.13792   0.17018   0.17385   0.18360   0.21624
 Alpha virt. eigenvalues --    0.22644   0.23687   0.24347   0.26160   0.30998
 Alpha virt. eigenvalues --    0.33302   0.35423   0.39466   0.40250   0.40747

 Mulliken atomic charges:
              1
     1  C   -0.285163
     2  C   -0.069983
     3  N   -0.275987
     4  C   -0.164040
     5  H    0.096323
     6  H    0.084966
     7  H    0.095696
     8  H    0.089214
     9  H    0.113108
    10  H    0.080748
    11  H    0.098695
    12  H    0.052438
    13  H    0.083985
 Sum of Mulliken atomic charges =   0.00000

 Dipole moment (field-independent basis, Debye):
    X=             -0.4512    Y=              0.7442    Z=             -0.4418  Tot=              0.9760
 Quadrupole moment (field-independent basis, Debye-Ang):
   XX=            -27.7608   YY=            -29.5331   ZZ=            -25.8494
   XY=              1.9130   XZ=             -0.5447   YZ=              0.6989

 Normal termination of Gaussian 09 at Mon Mar 21 04:52:37 2016.
