 Gaussian 09, Revision A.01,
 Gaussian 09:  EM64L-G09RevA.01  8-May-2009

 -------------
 # mp2/cc-pVTZ
 -------------

 --------------------------------
 N_methylacetamide_Z_single_point
 --------------------------------
 Symbolic Z-matrix:
 Charge =  0 Multiplicity = 1

                         Standard orientation:
 ---------------------------------------------------------------------
 Center     Atomic      Atomic             Coordinates (Angstroms)
 Number     Number       Type             X           Y           Z
 ---------------------------------------------------------------------
      1          6           0        1.833629   -0.538524    0.000062
      2          6           0        0.486146    0.169438   -0.000049
      3          7           0       -0.607982   -0.648889   -0.000217
      4          6           0       -1.962185   -0.112908    0.000095
      5          8           0        0.376829    1.393165   -0.000012
      6          1           0       -0.475803   -1.648741    0.000280
      7          1           0        1.945240   -1.173363   -0.886066
      8          1           0        2.621588    0.214539   -0.000313
      9          1           0        1.945429   -1.172611    0.886709
     10          1           0       -2.669186   -0.944887   -0.001793
     11          1           0       -2.136334    0.505439    0.886222
     12          1           0       -2.135234    0.508492   -0.884074
 ---------------------------------------------------------------------

 SCF Done:  E(RHF) =  -247.098014218     A.U. after   13 cycles
 E2 =    -0.9505973141D+00 EUMP2 =    -0.24804861153222D+03

 The electronic state is 1-A.
 Alpha  occ. eigenvalues --  -20.50964 -15.58109 -11.34532 -11.26022 -11.23695
 Alpha  occ. eigenvalues --   -1.36797  -1.22126  -1.01261  -0.92827  -0.78388
 Alpha  occ. eigenvalues --   -0.68556  -0.64468  -0.62923  -0.58110  -0.57607
 Alpha  occ. eigenvalues --   -0.55568  -0.54380  -0.49933  -0.41831  -0.38888
 Alpha virt. eigenvalues --    0.12456   0.15685   0.17633   0.17856   0.21733
 Alpha virt. eigenvalues --    0.21769   0.22679   0.25267   0.28011   0.30300
 Alpha virt. eigenvalues --    0.37232   0.38046   0.38180   0.41201   0.44161

 Mulliken atomic charges:
              1
     1  C   -0.295554
     2  C    0.334056
     3  N   -0.246422
     4  C   -0.142897
     5  O   -0.449488
     6  H    0.179177
     7  H    0.100534
     8  H    0.132247
     9  H    0.100543
    10  H    0.086683
    11  H    0.100463
    12  H    0.100658
 Sum of Mulliken atomic charges =   0.00000

 Dipole moment (field-independent basis, Debye):
    X=             -0.4710    Y=             -4.1533    Z=              0.0008  Tot=              4.1799
 Quadrupole moment (field-independent basis, Debye-Ang):
   XX=            -26.6579   YY=            -33.6486   ZZ=            -31.1793
   XY=             -1.1318   XZ=              0.0003   YZ=             -0.0018

 Normal termination of Gaussian 09 at Mon Mar 21 06:03:50 2016.
