 Gaussian 09, Revision A.01,
 Gaussian 09:  EM64L-G09RevA.01  8-May-2009

 -------------
 # mp2/cc-pVTZ
 -------------

 --------------------------------
 N_methylformamide_E_single_point
 --------------------------------
 Symbolic Z-matrix:
 Charge =  0 Multiplicity = 1

                         Standard orientation:
 ---------------------------------------------------------------------
 Center     Atomic      Atomic             Coordinates (Angstroms)
 Number     Number       Type             X           Y           Z
 ---------------------------------------------------------------------
      1          6           0        1.753156    0.116031    0.000963
      2          7           0        0.397784   -0.407398   -0.000343
      3          6           0       -0.732259    0.348814    0.000245
      4          8           0       -1.871375   -0.095241   -0.000019
      5          1           0        0.255274   -1.410359   -0.001574
      6          1           0        2.308206   -0.210003   -0.885461
      7          1           0        1.713543    1.208367   -0.012324
      8          1           0        2.304199   -0.199024    0.893062
      9          1           0       -0.520091    1.435666    0.001595
 ---------------------------------------------------------------------

 SCF Done:  E(RHF) =  -208.039019028     A.U. after   13 cycles
 E2 =    -0.7777054229D+00 EUMP2 =    -0.20881672445104D+03

 The electronic state is 1-A.
 Alpha  occ. eigenvalues --  -20.51829 -15.59215 -11.34913 -11.28249  -1.37223
 Alpha  occ. eigenvalues --   -1.23531  -0.96392  -0.84344  -0.68575  -0.67339
 Alpha  occ. eigenvalues --   -0.63177  -0.58981  -0.56952  -0.53857  -0.42795
 Alpha  occ. eigenvalues --   -0.39362
 Alpha virt. eigenvalues --    0.12937   0.15446   0.18058   0.19037   0.20325
 Alpha virt. eigenvalues --    0.22499   0.27367   0.32716   0.35728   0.36044
 Alpha virt. eigenvalues --    0.42144   0.49157   0.49387   0.52819   0.54363

 Mulliken atomic charges:
              1
     1  C   -0.133797
     2  N   -0.205893
     3  C    0.245393
     4  O   -0.435888
     5  H    0.187637
     6  H    0.093469
     7  H    0.088986
     8  H    0.093826
     9  H    0.066267
 Sum of Mulliken atomic charges =   0.00000

 Dipole moment (field-independent basis, Debye):
    X=              4.5225    Y=              0.4399    Z=             -0.0021  Tot=              4.5439
 Quadrupole moment (field-independent basis, Debye-Ang):
   XX=            -30.6187   YY=            -21.0301   ZZ=            -24.8521
   XY=             -1.1602   XZ=             -0.0042   YZ=             -0.0064

 Normal termination of Gaussian 09 at Mon Mar 21 06:05:16 2016.
