 Gaussian 09, Revision A.01,
 Gaussian 09:  EM64L-G09RevA.01  8-May-2009

 -------------
 # mp2/cc-pVTZ
 -------------

 -------------------------------
 N_Me_piperidine_ax_single_point
 -------------------------------
 Symbolic Z-matrix:
 Charge =  0 Multiplicity = 1

                         Standard orientation:
 ---------------------------------------------------------------------
 Center     Atomic      Atomic             Coordinates (Angstroms)
 Number     Number       Type             X           Y           Z
 ---------------------------------------------------------------------
      1          6           0       -1.797594    0.000018   -0.162698
      2          6           0       -0.937390    1.265359   -0.321700
      3          6           0        0.281324    1.209930    0.620501
      4          7           0        1.100915   -0.000014    0.478226
      5          6           0        0.281289   -1.209949    0.620487
      6          6           0       -0.937436   -1.265327   -0.321694
      7          6           0        1.957960   -0.000014   -0.702920
      8          1           0        0.927095    2.083551    0.474381
      9          1           0       -0.073664    1.245622    1.661082
     10          1           0       -0.073684   -1.245655    1.661071
     11          1           0        0.927050   -2.083570    0.474337
     12          1           0       -0.600575    1.354251   -1.363488
     13          1           0       -1.528016    2.164989   -0.105648
     14          1           0       -1.528072   -2.164956   -0.105665
     15          1           0       -0.600638   -1.354223   -1.363490
     16          1           0       -2.253442    0.000021    0.838985
     17          1           0       -2.625163    0.000012   -0.882458
     18          1           0        2.603660    0.884497   -0.678363
     19          1           0        2.603626   -0.884551   -0.678388
     20          1           0        1.426506    0.000010   -1.671785
 ---------------------------------------------------------------------

 SCF Done:  E(RHF) =  -289.310081738     A.U. after   11 cycles
 E2 =    -0.1253636015D+01 EUMP2 =    -0.29056371775315D+03

 The electronic state is 1-A.
 Alpha  occ. eigenvalues --  -15.53573 -11.24153 -11.24151 -11.23800 -11.21810
 Alpha  occ. eigenvalues --  -11.21533 -11.21526  -1.21857  -1.05934  -1.00613
 Alpha  occ. eigenvalues --   -0.93542  -0.84242  -0.83150  -0.74486  -0.65433
 Alpha  occ. eigenvalues --   -0.62788  -0.61135  -0.59975  -0.56705  -0.56039
 Alpha  occ. eigenvalues --   -0.52662  -0.50937  -0.50047  -0.48265  -0.48009
 Alpha  occ. eigenvalues --   -0.45217  -0.44228  -0.33477
 Alpha virt. eigenvalues --    0.13739   0.15877   0.16791   0.16904   0.19836
 Alpha virt. eigenvalues --    0.19879   0.21254   0.22083   0.22154   0.24411
 Alpha virt. eigenvalues --    0.24522   0.27077   0.27564   0.28202   0.32101

 Mulliken atomic charges:
              1
     1  C   -0.190903
     2  C   -0.208337
     3  C   -0.096934
     4  N   -0.237585
     5  C   -0.096936
     6  C   -0.208330
     7  C   -0.188814
     8  H    0.101320
     9  H    0.091727
    10  H    0.091730
    11  H    0.101321
    12  H    0.092082
    13  H    0.108272
    14  H    0.108271
    15  H    0.092078
    16  H    0.086290
    17  H    0.107962
    18  H    0.095676
    19  H    0.095676
    20  H    0.055433
 Sum of Mulliken atomic charges =   0.00000

 Dipole moment (field-independent basis, Debye):
    X=             -0.5741    Y=              0.0000    Z=             -0.6345  Tot=              0.8557
 Quadrupole moment (field-independent basis, Debye-Ang):
   XX=            -47.2467   YY=            -44.9597   ZZ=            -46.9843
   XY=              0.0001   XZ=             -2.1870   YZ=              0.0000

 Normal termination of Gaussian 09 at Mon Mar 21 05:07:54 2016.
