 Gaussian 09, Revision A.01,
 Gaussian 09:  EM64L-G09RevA.01  8-May-2009

 -------------
 # mp2/cc-pVTZ
 -------------

 ----------------------------------
 N_methylformamidine_t_single_point
 ----------------------------------
 Symbolic Z-matrix:
 Charge =  0 Multiplicity = 1

                         Standard orientation:
 ---------------------------------------------------------------------
 Center     Atomic      Atomic             Coordinates (Angstroms)
 Number     Number       Type             X           Y           Z
 ---------------------------------------------------------------------
      1          6           0       -1.812044    0.068059   -0.000081
      2          7           0       -0.471829   -0.485951    0.000075
      3          6           0        0.507383    0.329118    0.000146
      4          7           0        1.815414   -0.076308    0.000032
      5          1           0        0.386581    1.423670    0.000062
      6          1           0        2.568673    0.588739   -0.000597
      7          1           0        2.027166   -1.062274   -0.000283
      8          1           0       -2.361932   -0.284528    0.881080
      9          1           0       -1.835673    1.172100   -0.000334
     10          1           0       -2.361942   -0.284954   -0.881066
 ---------------------------------------------------------------------

 SCF Done:  E(RHF) =  -188.178858115     A.U. after   13 cycles
 E2 =    -0.7550432782D+00 EUMP2 =    -0.18893390139311D+03

 The electronic state is 1-A.
 Alpha  occ. eigenvalues --  -15.56698 -15.52022 -11.30495 -11.23471  -1.25093
 Alpha  occ. eigenvalues --   -1.15370  -0.92438  -0.80031  -0.71441  -0.64952
 Alpha  occ. eigenvalues --   -0.59498  -0.57732  -0.53234  -0.50193  -0.39259
 Alpha  occ. eigenvalues --   -0.34088
 Alpha virt. eigenvalues --    0.14189   0.15767   0.17736   0.19308   0.21700
 Alpha virt. eigenvalues --    0.23833   0.24572   0.29244   0.36761   0.37945
 Alpha virt. eigenvalues --    0.41859   0.42208   0.47079   0.50471   0.51630

 Mulliken atomic charges:
              1
     1  C   -0.111642
     2  N   -0.300298
     3  C    0.092498
     4  N   -0.328027
     5  H    0.077287
     6  H    0.184332
     7  H    0.190569
     8  H    0.081498
     9  H    0.032281
    10  H    0.081504
 Sum of Mulliken atomic charges =   0.00000

 Dipole moment (field-independent basis, Debye):
    X=              1.8643    Y=              1.8108    Z=             -0.0016  Tot=              2.5990
 Quadrupole moment (field-independent basis, Debye-Ang):
   XX=            -18.8516   YY=            -24.5583   ZZ=            -27.1806
   XY=             -0.2408   XZ=             -0.0038   YZ=              0.0001

 Normal termination of Gaussian 09 at Mon Mar 21 06:10:17 2016.
