 Gaussian 09, Revision A.01,
 Gaussian 09:  EM64L-G09RevA.01  8-May-2009

 -------------
 # mp2/cc-pVTZ
 -------------

 -------------------------------
 N_Me_piperidine_eq_single_point
 -------------------------------
 Symbolic Z-matrix:
 Charge =  0 Multiplicity = 1

                         Standard orientation:
 ---------------------------------------------------------------------
 Center     Atomic      Atomic             Coordinates (Angstroms)
 Number     Number       Type             X           Y           Z
 ---------------------------------------------------------------------
      1          6           0        1.900081    0.000000    0.240045
      2          6           0        1.156668   -1.259182   -0.226901
      3          6           0       -0.317068   -1.211618    0.188745
      4          7           0       -0.972743   -0.000009   -0.307658
      5          6           0       -0.317099    1.211614    0.188747
      6          6           0        1.156635    1.259216   -0.226898
      7          6           0       -2.398714   -0.000016   -0.015686
      8          1           0       -0.851984   -2.079080   -0.214884
      9          1           0       -0.389149   -1.274004    1.296648
     10          1           0       -0.389181    1.273996    1.296651
     11          1           0       -0.852035    2.079063   -0.214879
     12          1           0        1.212265   -1.336390   -1.320320
     13          1           0        1.622182   -2.161407    0.188397
     14          1           0        1.622126    2.161450    0.188401
     15          1           0        1.212231    1.336409   -1.320320
     16          1           0        1.960926    0.000005    1.338116
     17          1           0        2.931414   -0.000006   -0.132697
     18          1           0       -2.867437    0.886357   -0.455544
     19          1           0       -2.867449   -0.886375   -0.455558
     20          1           0       -2.617719   -0.000030    1.071290
 ---------------------------------------------------------------------

 SCF Done:  E(RHF) =  -289.316584071     A.U. after   11 cycles
 E2 =    -0.1252892968D+01 EUMP2 =    -0.29056947703864D+03

 The electronic state is 1-A.
 Alpha  occ. eigenvalues --  -15.53940 -11.24260 -11.24258 -11.23861 -11.21682
 Alpha  occ. eigenvalues --  -11.21523 -11.21511  -1.22404  -1.06471  -1.00863
 Alpha  occ. eigenvalues --   -0.92928  -0.84321  -0.82840  -0.74862  -0.65344
 Alpha  occ. eigenvalues --   -0.62032  -0.62028  -0.60437  -0.57416  -0.54865
 Alpha  occ. eigenvalues --   -0.53105  -0.52958  -0.49837  -0.48456  -0.46157
 Alpha  occ. eigenvalues --   -0.44123  -0.43977  -0.34872
 Alpha virt. eigenvalues --    0.14246   0.15814   0.16530   0.16776   0.19640
 Alpha virt. eigenvalues --    0.20449   0.21368   0.22487   0.22529   0.23402
 Alpha virt. eigenvalues --    0.24606   0.26406   0.27169   0.27808   0.31071

 Mulliken atomic charges:
              1
     1  C   -0.192219
     2  C   -0.182964
     3  C   -0.071399
     4  N   -0.236400
     5  C   -0.071396
     6  C   -0.182973
     7  C   -0.183208
     8  H    0.094957
     9  H    0.056673
    10  H    0.056672
    11  H    0.094958
    12  H    0.089388
    13  H    0.101622
    14  H    0.101624
    15  H    0.089388
    16  H    0.088015
    17  H    0.106309
    18  H    0.092934
    19  H    0.092936
    20  H    0.055083
 Sum of Mulliken atomic charges =   0.00000

 Dipole moment (field-independent basis, Debye):
    X=              0.0660    Y=              0.0000    Z=              0.5366  Tot=              0.5406
 Quadrupole moment (field-independent basis, Debye-Ang):
   XX=            -45.3330   YY=            -44.9503   ZZ=            -47.7039
   XY=             -0.0001   XZ=             -0.2686   YZ=              0.0000

 Normal termination of Gaussian 09 at Mon Mar 21 05:22:42 2016.
