 Gaussian 09, Revision A.01,
 Gaussian 09:  EM64L-G09RevA.01  8-May-2009

 -------------
 # mp2/cc-pVTZ
 -------------

 -------------------
 NAPA_b_single_point
 -------------------
 Symbolic Z-matrix:
 Charge =  0 Multiplicity = 1

                         Standard orientation:
 ---------------------------------------------------------------------
 Center     Atomic      Atomic             Coordinates (Angstroms)
 Number     Number       Type             X           Y           Z
 ---------------------------------------------------------------------
      1          6           0       -4.124595   -0.729528   -0.250476
      2          6           0       -3.122456   -1.522805   -0.818664
      3          6           0       -1.790587   -1.356844   -0.431554
      4          6           0       -1.434088   -0.391072    0.525933
      5          6           0       -2.449524    0.395885    1.089312
      6          6           0       -3.784402    0.228398    0.707833
      7          6           0        0.013824   -0.223351    0.934116
      8          6           0        0.943448    0.356687   -0.179108
      9          6           0        0.723727    1.862449   -0.393746
     10          7           0       -0.395976    2.207899   -1.079562
     11          7           0        2.341871    0.176146    0.157295
     12          6           0        2.980929   -1.011857   -0.033332
     13          8           0        2.390858   -2.011854   -0.447241
     14          6           0        4.460654   -1.034257    0.304714
     15          8           0        1.523435    2.694285    0.032117
     16          1           0        4.848309   -0.064970    0.629790
     17          1           0        5.015618   -1.367318   -0.576688
     18          1           0        4.629103   -1.770332    1.096187
     19          1           0        0.739256   -0.185156   -1.109281
     20          1           0       -0.623966    3.189712   -1.148242
     21          1           0        2.840787    1.016977    0.424699
     22          1           0       -1.106073    1.529206   -1.312113
     23          1           0        0.093529    0.409225    1.824836
     24          1           0        0.434275   -1.202006    1.184454
     25          1           0       -2.193205    1.142894    1.836582
     26          1           0       -1.019310   -1.991394   -0.861906
     27          1           0       -3.378572   -2.278345   -1.556013
     28          1           0       -4.556036    0.844066    1.161460
     29          1           0       -5.160909   -0.862556   -0.547073
 ---------------------------------------------------------------------

 SCF Done:  E(RHF) =  -683.613747394     A.U. after   14 cycles
 E2 =    -0.2649963585D+01 EUMP2 =    -0.68626371097903D+03

 The electronic state is 1-A.
 Alpha  occ. eigenvalues --  -20.53035 -20.51163 -15.59164 -15.58227 -11.36470
 Alpha  occ. eigenvalues --  -11.35089 -11.29162 -11.25270 -11.24544 -11.24494
 Alpha  occ. eigenvalues --  -11.24426 -11.24279 -11.24249 -11.24095 -11.23690
 Alpha  occ. eigenvalues --   -1.39052  -1.37039  -1.23296  -1.21982  -1.16106
 Alpha  occ. eigenvalues --   -1.07281  -1.02125  -1.01961  -0.97635  -0.90723
 Alpha  occ. eigenvalues --   -0.83510  -0.81615  -0.80517  -0.78024  -0.74148
 Alpha  occ. eigenvalues --   -0.70374  -0.68842  -0.66359  -0.64895  -0.64123
 Alpha  occ. eigenvalues --   -0.63978  -0.62466  -0.60289  -0.59252  -0.58968
 Alpha  occ. eigenvalues --   -0.58166  -0.56654  -0.55004  -0.54666  -0.53962
 Alpha  occ. eigenvalues --   -0.50778  -0.49749  -0.49452  -0.48732  -0.43820
 Alpha  occ. eigenvalues --   -0.42657  -0.42105  -0.39289  -0.34496  -0.33544
 Alpha virt. eigenvalues --    0.11192   0.11724   0.13454   0.14283   0.15240
 Alpha virt. eigenvalues --    0.15964   0.16318   0.17983   0.18429   0.18850
 Alpha virt. eigenvalues --    0.19496   0.19875   0.20750   0.21852   0.22944

 Mulliken atomic charges:
              1
     1  C   -0.168775
     2  C   -0.142489
     3  C   -0.189884
     4  C   -0.045009
     5  C   -0.174126
     6  C   -0.139142
     7  C   -0.183495
     8  C    0.006804
     9  C    0.339966
    10  N   -0.311688
    11  N   -0.255242
    12  C    0.319144
    13  O   -0.478470
    14  C   -0.274666
    15  O   -0.461746
    16  H    0.093983
    17  H    0.117455
    18  H    0.115049
    19  H    0.150265
    20  H    0.189876
    21  H    0.207034
    22  H    0.216713
    23  H    0.114547
    24  H    0.149338
    25  H    0.154658
    26  H    0.178782
    27  H    0.158563
    28  H    0.156104
    29  H    0.156453
 Sum of Mulliken atomic charges =   0.00000

 Dipole moment (field-independent basis, Debye):
    X=             -2.0285    Y=              1.2709    Z=             -0.0482  Tot=              2.3942
 Quadrupole moment (field-independent basis, Debye-Ang):
   XX=            -75.4847   YY=           -100.7386   ZZ=            -87.6083
   XY=             -3.8996   XZ=              5.4149   YZ=             -1.4792

 Normal termination of Gaussian 09 at Sun Mar 20 13:49:44 2016.
