 Gaussian 09, Revision A.01,
 Gaussian 09:  EM64L-G09RevA.01  8-May-2009

 -------------
 # mp2/cc-pVTZ
 -------------

 --------------------
 NAPA_g+_single_point
 --------------------
 Symbolic Z-matrix:
 Charge =  0 Multiplicity = 1

                         Standard orientation:
 ---------------------------------------------------------------------
 Center     Atomic      Atomic             Coordinates (Angstroms)
 Number     Number       Type             X           Y           Z
 ---------------------------------------------------------------------
      1          6           0       -3.786682    0.631323   -0.794517
      2          6           0       -3.209035   -0.617061   -1.047875
      3          6           0       -2.097273   -1.045515   -0.319116
      4          6           0       -1.541235   -0.230385    0.681862
      5          6           0       -2.134020    1.018762    0.930295
      6          6           0       -3.246386    1.449708    0.199425
      7          6           0       -0.334238   -0.671852    1.492970
      8          6           0        1.039040   -0.539557    0.792480
      9          6           0        1.370962   -1.760411   -0.111709
     10          7           0        2.588244   -1.695410   -0.704884
     11          7           0        1.135123    0.736049    0.081299
     12          6           0        2.297888    1.406487   -0.130420
     13          8           0        3.397271    0.936672    0.189379
     14          6           0        2.180407    2.767187   -0.788066
     15          8           0        0.608204   -2.715273   -0.238468
     16          1           0        2.616893    3.514600   -0.119325
     17          1           0        1.151413    3.053051   -1.021469
     18          1           0        2.771361    2.765686   -1.708241
     19          1           0        1.820435   -0.523320    1.562437
     20          1           0        2.886560   -2.481102   -1.264576
     21          1           0        0.267841    1.135165   -0.254333
     22          1           0        3.228357   -0.932967   -0.496463
     23          1           0       -0.293439   -0.074570    2.409713
     24          1           0       -0.444077   -1.719780    1.783874
     25          1           0       -1.730827    1.654012    1.716208
     26          1           0       -1.645904   -2.011692   -0.519711
     27          1           0       -3.627749   -1.263209   -1.814418
     28          1           0       -3.691724    2.417224    0.413947
     29          1           0       -4.653089    0.959119   -1.361809
 ---------------------------------------------------------------------

 SCF Done:  E(RHF) =  -683.611181231     A.U. after   14 cycles
 E2 =    -0.2653045629D+01 EUMP2 =    -0.68626422686014D+03

 The electronic state is 1-A.
 Alpha  occ. eigenvalues --  -20.52822 -20.51688 -15.60097 -15.56994 -11.36801
 Alpha  occ. eigenvalues --  -11.35069 -11.29461 -11.24947 -11.24835 -11.24313
 Alpha  occ. eigenvalues --  -11.24166 -11.24026 -11.23888 -11.23750 -11.23096
 Alpha  occ. eigenvalues --   -1.38911  -1.37324  -1.24869  -1.19947  -1.15552
 Alpha  occ. eigenvalues --   -1.07278  -1.02406  -1.01477  -0.98498  -0.90081
 Alpha  occ. eigenvalues --   -0.82966  -0.81721  -0.80729  -0.77444  -0.72826
 Alpha  occ. eigenvalues --   -0.70469  -0.69432  -0.67042  -0.66360  -0.63502
 Alpha  occ. eigenvalues --   -0.63137  -0.61825  -0.60119  -0.59367  -0.58480
 Alpha  occ. eigenvalues --   -0.58379  -0.56496  -0.55254  -0.54230  -0.53176
 Alpha  occ. eigenvalues --   -0.52295  -0.49433  -0.48732  -0.48576  -0.44711
 Alpha  occ. eigenvalues --   -0.43716  -0.40675  -0.39404  -0.33990  -0.33289
 Alpha virt. eigenvalues --    0.11628   0.11901   0.12483   0.14893   0.15496
 Alpha virt. eigenvalues --    0.15981   0.16546   0.17319   0.18301   0.18620
 Alpha virt. eigenvalues --    0.19903   0.20197   0.21639   0.22997   0.23440

 Mulliken atomic charges:
              1
     1  C   -0.164608
     2  C   -0.141293
     3  C   -0.186634
     4  C   -0.002636
     5  C   -0.213944
     6  C   -0.144989
     7  C   -0.203916
     8  C   -0.017842
     9  C    0.347284
    10  N   -0.336681
    11  N   -0.247357
    12  C    0.335068
    13  O   -0.499872
    14  C   -0.273425
    15  O   -0.454043
    16  H    0.120521
    17  H    0.095304
    18  H    0.118250
    19  H    0.153081
    20  H    0.185131
    21  H    0.206828
    22  H    0.239352
    23  H    0.124213
    24  H    0.143993
    25  H    0.153415
    26  H    0.199882
    27  H    0.156248
    28  H    0.154144
    29  H    0.154529
 Sum of Mulliken atomic charges =   0.00000

 Dipole moment (field-independent basis, Debye):
    X=             -0.9252    Y=              3.4939    Z=             -0.6686  Tot=              3.6756
 Quadrupole moment (field-independent basis, Debye-Ang):
   XX=            -94.1062   YY=            -89.3423   ZZ=            -85.3721
   XY=             -4.8402   XZ=             -1.3669   YZ=             -0.0077

 Normal termination of Gaussian 09 at Sun Mar 20 16:56:59 2016.
