 Gaussian 09, Revision A.01,
 Gaussian 09:  EM64L-G09RevA.01  8-May-2009

 -------------
 # mp2/cc-pVTZ
 -------------

 ----------------------
 NAPA_anti_single_point
 ----------------------
 Symbolic Z-matrix:
 Charge =  0 Multiplicity = 1

                         Standard orientation:
 ---------------------------------------------------------------------
 Center     Atomic      Atomic             Coordinates (Angstroms)
 Number     Number       Type             X           Y           Z
 ---------------------------------------------------------------------
      1          6           0        4.287862   -0.391775    0.589067
      2          6           0        3.498672   -1.542250    0.671610
      3          6           0        2.220072   -1.554052    0.109192
      4          6           0        1.707102   -0.421076   -0.540915
      5          6           0        2.507904    0.728010   -0.618172
      6          6           0        3.787963    0.741752   -0.057423
      7          6           0        0.313117   -0.452875   -1.139264
      8          6           0       -0.788412   -0.033981   -0.150481
      9          6           0       -0.800568    1.496063    0.100893
     10          7           0       -1.371359    1.854772    1.280335
     11          7           0       -2.106004   -0.442412   -0.651003
     12          6           0       -3.159105   -0.699307    0.176250
     13          8           0       -3.065606   -0.598085    1.403465
     14          6           0       -4.452194   -1.126007   -0.490276
     15          8           0       -0.351415    2.298748   -0.712189
     16          1           0       -4.384114   -1.188572   -1.579774
     17          1           0       -5.238420   -0.415499   -0.219915
     18          1           0       -4.741834   -2.103033   -0.093536
     19          1           0       -0.650029   -0.548026    0.804989
     20          1           0       -1.523987    2.839199    1.450178
     21          1           0       -2.255857   -0.430870   -1.650433
     22          1           0       -1.904726    1.170018    1.807103
     23          1           0        0.265445    0.205384   -2.013293
     24          1           0        0.086835   -1.473606   -1.468128
     25          1           0        2.116410    1.614206   -1.108033
     26          1           0        1.616177   -2.457024    0.169907
     27          1           0        3.878697   -2.430985    1.167663
     28          1           0        4.394677    1.640277   -0.127376
     29          1           0        5.283958   -0.380313    1.022235
 ---------------------------------------------------------------------

 SCF Done:  E(RHF) =  -683.612291288     A.U. after   15 cycles
 E2 =    -0.2649895814D+01 EUMP2 =    -0.68626218710178D+03

 The electronic state is 1-A.
 Alpha  occ. eigenvalues --  -20.52972 -20.51759 -15.60495 -15.57309 -11.36972
 Alpha  occ. eigenvalues --  -11.35035 -11.29130 -11.25193 -11.24206 -11.24138
 Alpha  occ. eigenvalues --  -11.23319 -11.23190 -11.23110 -11.22999 -11.22592
 Alpha  occ. eigenvalues --   -1.39072  -1.37371  -1.24896  -1.20199  -1.14952
 Alpha  occ. eigenvalues --   -1.07221  -1.02367  -1.00752  -0.97961  -0.89943
 Alpha  occ. eigenvalues --   -0.82314  -0.82178  -0.79152  -0.77973  -0.72562
 Alpha  occ. eigenvalues --   -0.70181  -0.68658  -0.67507  -0.66825  -0.63166
 Alpha  occ. eigenvalues --   -0.62882  -0.62243  -0.59745  -0.59665  -0.58074
 Alpha  occ. eigenvalues --   -0.57834  -0.56275  -0.54682  -0.54164  -0.53063
 Alpha  occ. eigenvalues --   -0.52122  -0.48764  -0.48595  -0.48148  -0.44728
 Alpha  occ. eigenvalues --   -0.43690  -0.41031  -0.39625  -0.33116  -0.32524
 Alpha virt. eigenvalues --    0.11916   0.12635   0.13005   0.14784   0.15738
 Alpha virt. eigenvalues --    0.16078   0.16520   0.16764   0.18227   0.18914
 Alpha virt. eigenvalues --    0.20187   0.20359   0.21435   0.22462   0.22876

 Mulliken atomic charges:
              1
     1  C   -0.166769
     2  C   -0.140223
     3  C   -0.194861
     4  C    0.020665
     5  C   -0.184447
     6  C   -0.139774
     7  C   -0.224749
     8  C    0.008375
     9  C    0.350747
    10  N   -0.328614
    11  N   -0.261682
    12  C    0.339400
    13  O   -0.491802
    14  C   -0.268493
    15  O   -0.453088
    16  H    0.090759
    17  H    0.119564
    18  H    0.122853
    19  H    0.154392
    20  H    0.184211
    21  H    0.192479
    22  H    0.230890
    23  H    0.137024
    24  H    0.124253
    25  H    0.181089
    26  H    0.144360
    27  H    0.149806
    28  H    0.152581
    29  H    0.151051
 Sum of Mulliken atomic charges =   0.00000

 Dipole moment (field-independent basis, Debye):
    X=             -2.1004    Y=             -1.9808    Z=             -1.3457  Tot=              3.1853
 Quadrupole moment (field-independent basis, Debye-Ang):
   XX=            -77.5510   YY=            -89.3229   ZZ=            -91.5038
   XY=              0.4317   XZ=             11.0430   YZ=              6.8808

 Normal termination of Gaussian 09 at Sun Mar 20 12:18:44 2016.
