 Gaussian 09, Revision A.01,
 Gaussian 09:  EM64L-G09RevA.01  8-May-2009

 -------------
 # mp2/cc-pVTZ
 -------------

 --------------------
 NAPA_g-_single_point
 --------------------
 Symbolic Z-matrix:
 Charge =  0 Multiplicity = 1

                         Standard orientation:
 ---------------------------------------------------------------------
 Center     Atomic      Atomic             Coordinates (Angstroms)
 Number     Number       Type             X           Y           Z
 ---------------------------------------------------------------------
      1          6           0       -4.041305    0.427197    0.259487
      2          6           0       -3.569971    0.096827   -1.012274
      3          6           0       -2.326222   -0.526978   -1.158321
      4          6           0       -1.533169   -0.830248   -0.042599
      5          6           0       -2.024186   -0.499576    1.230700
      6          6           0       -3.263763    0.123824    1.382145
      7          6           0       -0.185277   -1.501519   -0.211381
      8          6           0        1.007282   -0.624608    0.203391
      9          6           0        2.345848   -1.378738   -0.023588
     10          7           0        3.405493   -0.821325    0.616975
     11          7           0        1.001552    0.647146   -0.526432
     12          6           0        1.549910    1.789165   -0.029788
     13          8           0        2.203205    1.798622    1.020213
     14          6           0        1.324080    3.053770   -0.833965
     15          8           0        2.418540   -2.392765   -0.710711
     16          1           0        0.792763    3.773957   -0.205128
     17          1           0        0.752557    2.892805   -1.751903
     18          1           0        2.294736    3.489585   -1.085709
     19          1           0        0.941291   -0.370708    1.267308
     20          1           0        4.322064   -1.207808    0.441029
     21          1           0        0.452665    0.700000   -1.372832
     22          1           0        3.310434    0.093319    1.051190
     23          1           0       -0.136277   -2.416811    0.387931
     24          1           0       -0.042611   -1.822386   -1.248136
     25          1           0       -1.433519   -0.735491    2.112848
     26          1           0       -1.975261   -0.796057   -2.152381
     27          1           0       -4.169117    0.317931   -1.891148
     28          1           0       -3.625334    0.369536    2.376652
     29          1           0       -5.007035    0.909824    0.377616
 ---------------------------------------------------------------------

 SCF Done:  E(RHF) =  -683.612221348     A.U. after   15 cycles
 E2 =    -0.2650402778D+01 EUMP2 =    -0.68626262412524D+03

 The electronic state is 1-A.
 Alpha  occ. eigenvalues --  -20.52824 -20.51461 -15.60248 -15.56852 -11.36779
 Alpha  occ. eigenvalues --  -11.34763 -11.29267 -11.25268 -11.24935 -11.24489
 Alpha  occ. eigenvalues --  -11.24446 -11.24266 -11.24199 -11.24100 -11.24076
 Alpha  occ. eigenvalues --   -1.38902  -1.37053  -1.24821  -1.19817  -1.16022
 Alpha  occ. eigenvalues --   -1.07596  -1.02533  -1.01989  -0.98569  -0.90149
 Alpha  occ. eigenvalues --   -0.83483  -0.81748  -0.80455  -0.77723  -0.72472
 Alpha  occ. eigenvalues --   -0.70851  -0.68883  -0.67910  -0.66424  -0.63909
 Alpha  occ. eigenvalues --   -0.63410  -0.61847  -0.59912  -0.59489  -0.59166
 Alpha  occ. eigenvalues --   -0.58354  -0.56605  -0.55440  -0.54460  -0.53041
 Alpha  occ. eigenvalues --   -0.51754  -0.49801  -0.49299  -0.49153  -0.44586
 Alpha  occ. eigenvalues --   -0.43665  -0.40502  -0.39376  -0.34436  -0.33571
 Alpha virt. eigenvalues --    0.10973   0.11772   0.12553   0.14321   0.15051
 Alpha virt. eigenvalues --    0.15787   0.16397   0.16944   0.18002   0.18877
 Alpha virt. eigenvalues --    0.19367   0.19804   0.21637   0.22870   0.23443

 Mulliken atomic charges:
              1
     1  C   -0.171035
     2  C   -0.134275
     3  C   -0.209977
     4  C    0.059097
     5  C   -0.192695
     6  C   -0.134652
     7  C   -0.227547
     8  C   -0.023365
     9  C    0.339529
    10  N   -0.336553
    11  N   -0.242162
    12  C    0.347507
    13  O   -0.500998
    14  C   -0.266214
    15  O   -0.444930
    16  H    0.121624
    17  H    0.091147
    18  H    0.118935
    19  H    0.148455
    20  H    0.183823
    21  H    0.188280
    22  H    0.238730
    23  H    0.138181
    24  H    0.139521
    25  H    0.149759
    26  H    0.156405
    27  H    0.154373
    28  H    0.154679
    29  H    0.154357
 Sum of Mulliken atomic charges =   0.00000

 Dipole moment (field-independent basis, Debye):
    X=             -2.1929    Y=              3.0323    Z=             -1.0908  Tot=              3.8979
 Quadrupole moment (field-independent basis, Debye-Ang):
   XX=            -86.3697   YY=            -97.7886   ZZ=            -85.7255
   XY=              1.7722   XZ=             -0.0016   YZ=             -9.7494

 Normal termination of Gaussian 09 at Sun Mar 20 15:23:36 2016.
