 Gaussian 09, Revision A.01,
 Gaussian 09:  EM64L-G09RevA.01  8-May-2009

 -------------
 # mp2/cc-pVTZ
 -------------

 --------------------------
 piperidine_ax_single_point
 --------------------------
 Symbolic Z-matrix:
 Charge =  0 Multiplicity = 1

                         Standard orientation:
 ---------------------------------------------------------------------
 Center     Atomic      Atomic             Coordinates (Angstroms)
 Number     Number       Type             X           Y           Z
 ---------------------------------------------------------------------
      1          6           0       -0.000847    1.460798    0.221289
      2          6           0        1.265224    0.713273   -0.229120
      3          6           0        1.220835   -0.757724    0.222830
      4          7           0        0.000843   -1.471086   -0.173995
      5          6           0       -1.219976   -0.759105    0.222800
      6          6           0       -1.266026    0.711859   -0.229099
      7          1           0        0.000935   -1.615895   -1.181717
      8          1           0        2.084063   -1.310820   -0.164317
      9          1           0        1.283469   -0.801745    1.319999
     10          1           0       -1.282556   -0.803217    1.319967
     11          1           0       -2.082565   -1.313180   -0.164369
     12          1           0        1.341194    0.750534   -1.325999
     13          1           0        2.165229    1.201509    0.167599
     14          1           0       -2.166567    1.199102    0.167633
     15          1           0       -1.342031    0.749053   -1.325974
     16          1           0       -0.000895    1.540558    1.318540
     17          1           0       -0.001446    2.487097   -0.165600
 ---------------------------------------------------------------------

 SCF Done:  E(RHF) =  -250.273941810     A.U. after   12 cycles
 E2 =    -0.1076320954D+01 EUMP2 =    -0.25135026276341D+03

 The electronic state is 1-A.
 Alpha  occ. eigenvalues --  -15.53299 -11.24216 -11.24215 -11.21892 -11.21651
 Alpha  occ. eigenvalues --  -11.21643  -1.20147  -1.05099  -1.00627  -0.85895
 Alpha  occ. eigenvalues --   -0.84047  -0.76717  -0.65926  -0.61311  -0.60527
 Alpha  occ. eigenvalues --   -0.60371  -0.54382  -0.52595  -0.51902  -0.48802
 Alpha  occ. eigenvalues --   -0.48545  -0.45565  -0.44422  -0.35295
 Alpha virt. eigenvalues --    0.13908   0.15409   0.16474   0.17474   0.20910
 Alpha virt. eigenvalues --    0.20970   0.21687   0.22345   0.22535   0.24482
 Alpha virt. eigenvalues --    0.25212   0.30459   0.32672   0.34285   0.37002

 Mulliken atomic charges:
              1
     1  C   -0.189598
     2  C   -0.195467
     3  C   -0.086821
     4  N   -0.281421
     5  C   -0.086824
     6  C   -0.195455
     7  H    0.100150
     8  H    0.103767
     9  H    0.082226
    10  H    0.082224
    11  H    0.103769
    12  H    0.081768
    13  H    0.101881
    14  H    0.101881
    15  H    0.081763
    16  H    0.088596
    17  H    0.107562
 Sum of Mulliken atomic charges =   0.00000

 Dipole moment (field-independent basis, Debye):
    X=             -0.0006    Y=              1.0218    Z=             -0.5949  Tot=              1.1823
 Quadrupole moment (field-independent basis, Debye-Ang):
   XX=            -38.4005   YY=            -43.5556   ZZ=            -37.7367
   XY=              0.0028   XZ=             -0.0010   YZ=              1.6906

 Normal termination of Gaussian 09 at Sun Mar 20 10:49:04 2016.
