 Gaussian 09, Revision A.01,
 Gaussian 09:  EM64L-G09RevA.01  8-May-2009

 -------------
 # mp2/cc-pVTZ
 -------------

 --------------------------
 piperidine_eq_single_point
 --------------------------
 Symbolic Z-matrix:
 Charge =  0 Multiplicity = 1

                         Standard orientation:
 ---------------------------------------------------------------------
 Center     Atomic      Atomic             Coordinates (Angstroms)
 Number     Number       Type             X           Y           Z
 ---------------------------------------------------------------------
      1          6           0        0.059441    1.458398    0.230909
      2          6           0        1.294549    0.664774   -0.225933
      3          6           0        1.187497   -0.802297    0.205463
      4          7           0       -0.056027   -1.380299   -0.312246
      5          6           0       -1.248794   -0.703431    0.205063
      6          6           0       -1.236352    0.767881   -0.225510
      7          1           0       -0.096579   -2.374944   -0.111066
      8          1           0        2.030087   -1.380337   -0.189831
      9          1           0        1.241416   -0.853970    1.312138
     10          1           0       -1.307675   -0.751385    1.311642
     11          1           0       -2.135312   -1.210727   -0.191286
     12          1           0        1.374316    0.703418   -1.319891
     13          1           0        2.210138    1.106463    0.186515
     14          1           0       -2.112785    1.282190    0.187750
     15          1           0       -1.313248    0.813611   -1.319423
     16          1           0        0.062522    1.529533    1.328632
     17          1           0        0.101266    2.486289   -0.149411
 ---------------------------------------------------------------------

 SCF Done:  E(RHF) =  -250.275484017     A.U. after   11 cycles
 E2 =    -0.1076135970D+01 EUMP2 =    -0.25135161998753D+03

 The electronic state is 1-A.
 Alpha  occ. eigenvalues --  -15.53335 -11.24254 -11.24253 -11.21593 -11.21361
 Alpha  occ. eigenvalues --  -11.21353  -1.20235  -1.04991  -1.00649  -0.85902
 Alpha  occ. eigenvalues --   -0.83617  -0.74954  -0.67850  -0.61609  -0.60701
 Alpha  occ. eigenvalues --   -0.58094  -0.55534  -0.54038  -0.52600  -0.48334
 Alpha  occ. eigenvalues --   -0.46317  -0.44074  -0.43932  -0.36182
 Alpha virt. eigenvalues --    0.14011   0.16390   0.16728   0.16920   0.20204
 Alpha virt. eigenvalues --    0.20898   0.21660   0.22580   0.23911   0.24129
 Alpha virt. eigenvalues --    0.25581   0.30976   0.31841   0.34278   0.36552

 Mulliken atomic charges:
              1
     1  C   -0.193028
     2  C   -0.178337
     3  C   -0.080797
     4  N   -0.293319
     5  C   -0.080789
     6  C   -0.178403
     7  H    0.120921
     8  H    0.097111
     9  H    0.060892
    10  H    0.060917
    11  H    0.097074
    12  H    0.088750
    13  H    0.099787
    14  H    0.099810
    15  H    0.088750
    16  H    0.085354
    17  H    0.105305
 Sum of Mulliken atomic charges =   0.00000

 Dipole moment (field-independent basis, Debye):
    X=             -0.0088    Y=             -0.2114    Z=              0.8498  Tot=              0.8758
 Quadrupole moment (field-independent basis, Debye-Ang):
   XX=            -38.4584   YY=            -37.5380   ZZ=            -41.0400
   XY=              0.0376   XZ=             -0.0557   YZ=             -1.3771

 Normal termination of Gaussian 09 at Sun Mar 20 10:39:55 2016.
