 Gaussian 09, Revision A.01,
 Gaussian 09:  EM64L-G09RevA.01  8-May-2009

 -------------
 # mp2/cc-pVTZ
 -------------

 --------------------------
 propylamine_g_single_point
 --------------------------
 Symbolic Z-matrix:
 Charge =  0 Multiplicity = 1

                         Standard orientation:
 ---------------------------------------------------------------------
 Center     Atomic      Atomic             Coordinates (Angstroms)
 Number     Number       Type             X           Y           Z
 ---------------------------------------------------------------------
      1          6           0        1.579111   -0.537177    0.129547
      2          6           0        0.669333    0.614239   -0.312067
      3          6           0       -0.730899    0.572958    0.312135
      4          7           0       -1.471242   -0.621809   -0.117689
      5          1           0       -1.702685   -0.567228   -1.106775
      6          1           0       -1.254383    1.516173    0.078303
      7          1           0       -0.637424    0.525748    1.404658
      8          1           0        0.568642    0.609191   -1.407484
      9          1           0        1.131861    1.576588   -0.055512
     10          1           0       -2.345269   -0.716919    0.391168
     11          1           0        2.555285   -0.482034   -0.364780
     12          1           0        1.751584   -0.504992    1.212341
     13          1           0        1.125807   -1.503983   -0.105782
 ---------------------------------------------------------------------

 SCF Done:  E(RHF) =  -173.350575564     A.U. after   11 cycles
 E2 =    -0.7534316042D+00 EUMP2 =    -0.17410400716779D+03

 The electronic state is 1-A.
 Alpha  occ. eigenvalues --  -15.53309 -11.24525 -11.21632 -11.20297  -1.16993
 Alpha  occ. eigenvalues --   -1.02514  -0.89787  -0.78775  -0.65759  -0.62336
 Alpha  occ. eigenvalues --   -0.59882  -0.55481  -0.52611  -0.48961  -0.47157
 Alpha  occ. eigenvalues --   -0.46555  -0.38411
 Alpha virt. eigenvalues --    0.13971   0.16744   0.17523   0.18269   0.21686
 Alpha virt. eigenvalues --    0.22213   0.23265   0.25261   0.26213   0.30386
 Alpha virt. eigenvalues --    0.35144   0.36797   0.40147   0.40997   0.43958

 Mulliken atomic charges:
              1
     1  C   -0.281477
     2  C   -0.160518
     3  C   -0.059618
     4  N   -0.385602
     5  H    0.139632
     6  H    0.076698
     7  H    0.081531
     8  H    0.078740
     9  H    0.090616
    10  H    0.143115
    11  H    0.093283
    12  H    0.079841
    13  H    0.103759
 Sum of Mulliken atomic charges =   0.00000

 Dipole moment (field-independent basis, Debye):
    X=             -0.8843    Y=              0.9441    Z=             -0.2413  Tot=              1.3158
 Quadrupole moment (field-independent basis, Debye-Ang):
   XX=            -24.9355   YY=            -29.7172   ZZ=            -26.0563
   XY=              0.1361   XZ=              0.2718   YZ=              0.3533

 Normal termination of Gaussian 09 at Sun Mar 20 10:10:59 2016.
