 Gaussian 09, Revision A.01,
 Gaussian 09:  EM64L-G09RevA.01  8-May-2009

 -------------
 # mp2/cc-pVTZ
 -------------

 --------------------------------
 propanediamine_tTTt_single_point
 --------------------------------
 Symbolic Z-matrix:
 Charge =  0 Multiplicity = 1

                         Standard orientation:
 ---------------------------------------------------------------------
 Center     Atomic      Atomic             Coordinates (Angstroms)
 Number     Number       Type             X           Y           Z
 ---------------------------------------------------------------------
      1          6           0        1.284303   -0.502612   -0.000013
      2          6           0       -0.000006    0.344400   -0.000010
      3          6           0       -1.284289   -0.502616    0.000001
      4          7           0       -2.552084    0.234020    0.000005
      5          7           0        2.552063    0.234023    0.000000
      6          1           0        1.286574   -1.162488   -0.877042
      7          1           0        1.286576   -1.162460    0.877038
      8          1           0        2.626151    0.832846   -0.818526
      9          1           0        2.626216    0.832706    0.818620
     10          1           0       -1.286586   -1.162466    0.877051
     11          1           0       -1.286587   -1.162487   -0.877032
     12          1           0       -2.626123    0.832794    0.818577
     13          1           0       -2.626118    0.832811   -0.818556
     14          1           0       -0.000004    1.003713    0.881134
     15          1           0        0.000003    1.003697   -0.881165
 ---------------------------------------------------------------------

 SCF Done:  E(RHF) =  -228.394147267     A.U. after   11 cycles
 E2 =    -0.9617591730D+00 EUMP2 =    -0.22935590644019D+03

 The electronic state is 1-A.
 Alpha  occ. eigenvalues --  -15.53594 -15.53593 -11.24871 -11.24871 -11.21967
 Alpha  occ. eigenvalues --   -1.17855  -1.16649  -1.00930  -0.87291  -0.80719
 Alpha  occ. eigenvalues --   -0.68257  -0.65941  -0.60617  -0.58094  -0.57654
 Alpha  occ. eigenvalues --   -0.54987  -0.50535  -0.49779  -0.47136  -0.41010
 Alpha  occ. eigenvalues --   -0.36827
 Alpha virt. eigenvalues --    0.13572   0.15032   0.16185   0.16303   0.20676
 Alpha virt. eigenvalues --    0.21252   0.22008   0.22979   0.26633   0.27280
 Alpha virt. eigenvalues --    0.30287   0.33863   0.37770   0.40335   0.43658

 Mulliken atomic charges:
              1
     1  C   -0.063108
     2  C   -0.168103
     3  C   -0.063116
     4  N   -0.379536
     5  N   -0.379549
     6  H    0.091586
     7  H    0.091581
     8  H    0.136974
     9  H    0.136976
    10  H    0.091584
    11  H    0.091584
    12  H    0.136967
    13  H    0.136967
    14  H    0.069596
    15  H    0.069596
 Sum of Mulliken atomic charges =   0.00000

 Dipole moment (field-independent basis, Debye):
    X=              0.0003    Y=              1.7767    Z=              0.0001  Tot=              1.7767
 Quadrupole moment (field-independent basis, Debye-Ang):
   XX=            -44.6326   YY=            -31.8164   ZZ=            -29.8686
   XY=              0.0002   XZ=              0.0004   YZ=             -0.0001

 Normal termination of Gaussian 09 at Sun Mar 20 10:17:52 2016.
