 Gaussian 09, Revision A.01,
 Gaussian 09:  EM64L-G09RevA.01  8-May-2009

 -------------
 # mp2/cc-pVTZ
 -------------

 --------------------------
 propylamine_a_single_point
 --------------------------
 Symbolic Z-matrix:
 Charge =  0 Multiplicity = 1

                         Standard orientation:
 ---------------------------------------------------------------------
 Center     Atomic      Atomic             Coordinates (Angstroms)
 Number     Number       Type             X           Y           Z
 ---------------------------------------------------------------------
      1          6           0        1.930493   -0.132919    0.023374
      2          6           0        0.545935    0.518629   -0.060015
      3          6           0       -0.597552   -0.494245    0.029994
      4          7           0       -1.899960    0.174321   -0.086527
      5          1           0       -2.061757    0.793452    0.704198
      6          1           0       -0.485717   -1.080705    0.959793
      7          1           0       -0.516144   -1.205348   -0.801835
      8          1           0        0.441934    1.077019   -0.997962
      9          1           0        0.437513    1.253156    0.751285
     10          1           0       -2.660047   -0.499816   -0.101751
     11          1           0        2.725970    0.617047   -0.038854
     12          1           0        2.061367   -0.677633    0.966045
     13          1           0        2.083345   -0.846212   -0.795346
 ---------------------------------------------------------------------

 SCF Done:  E(RHF) =  -173.351107950     A.U. after   11 cycles
 E2 =    -0.7527651306D+00 EUMP2 =    -0.17410387308063D+03

 The electronic state is 1-A.
 Alpha  occ. eigenvalues --  -15.53256 -11.24454 -11.21603 -11.21276  -1.16926
 Alpha  occ. eigenvalues --   -1.03140  -0.89507  -0.79554  -0.65623  -0.62521
 Alpha  occ. eigenvalues --   -0.59911  -0.56249  -0.52767  -0.49131  -0.47551
 Alpha  occ. eigenvalues --   -0.46722  -0.38480
 Alpha virt. eigenvalues --    0.14148   0.15399   0.17441   0.18978   0.21069
 Alpha virt. eigenvalues --    0.22554   0.24052   0.24417   0.26290   0.30788
 Alpha virt. eigenvalues --    0.34202   0.36349   0.40573   0.41681   0.44877

 Mulliken atomic charges:
              1
     1  C   -0.297133
     2  C   -0.149870
     3  C   -0.038539
     4  N   -0.383572
     5  H    0.138904
     6  H    0.058630
     7  H    0.082235
     8  H    0.098597
     9  H    0.076446
    10  H    0.141039
    11  H    0.101828
    12  H    0.083842
    13  H    0.087595
 Sum of Mulliken atomic charges =   0.00000

 Dipole moment (field-independent basis, Debye):
    X=             -0.0787    Y=             -0.6126    Z=              1.0490  Tot=              1.2173
 Quadrupole moment (field-independent basis, Debye-Ang):
   XX=            -26.7315   YY=            -27.4640   ZZ=            -27.7127
   XY=              1.8144   XZ=             -2.5051   YZ=              1.5337

 Normal termination of Gaussian 09 at Sun Mar 20 10:14:15 2016.
