 Gaussian 09, Revision A.01,
 Gaussian 09:  EM64L-G09RevA.01  8-May-2009

 -------------
 # mp2/cc-pVTZ
 -------------

 --------------------------------
 propanediamine_gGGg_single_point
 --------------------------------
 Symbolic Z-matrix:
 Charge =  0 Multiplicity = 1

                         Standard orientation:
 ---------------------------------------------------------------------
 Center     Atomic      Atomic             Coordinates (Angstroms)
 Number     Number       Type             X           Y           Z
 ---------------------------------------------------------------------
      1          6           0        1.302654    0.495975    0.208152
      2          6           0       -0.014497    1.034701   -0.364192
      3          6           0       -1.287403    0.462133    0.272221
      4          7           0       -1.545880   -0.912082   -0.172794
      5          7           0        1.448672   -0.955699   -0.000821
      6          1           0        1.320581    0.671506    1.291459
      7          1           0        2.136454    1.076997   -0.221524
      8          1           0        1.508772   -1.170324   -0.993974
      9          1           0        2.302062   -1.299009    0.431822
     10          1           0       -2.140444    1.078938   -0.036263
     11          1           0       -1.204987    0.562971    1.370799
     12          1           0       -0.776166   -1.512061    0.117381
     13          1           0       -2.407206   -1.269156    0.231301
     14          1           0       -0.010828    2.124056   -0.225480
     15          1           0       -0.052299    0.853704   -1.447300
 ---------------------------------------------------------------------

 SCF Done:  E(RHF) =  -228.394556561     A.U. after   12 cycles
 E2 =    -0.9642464275D+00 EUMP2 =    -0.22935880298817D+03

 The electronic state is 1-A.
 Alpha  occ. eigenvalues --  -15.53970 -15.51428 -11.24938 -11.23794 -11.21479
 Alpha  occ. eigenvalues --   -1.17973  -1.14873  -1.00491  -0.87624  -0.78130
 Alpha  occ. eigenvalues --   -0.66427  -0.65301  -0.62167  -0.59804  -0.55263
 Alpha  occ. eigenvalues --   -0.54732  -0.49145  -0.48248  -0.47106  -0.38871
 Alpha  occ. eigenvalues --   -0.37036
 Alpha virt. eigenvalues --    0.13889   0.16203   0.17358   0.17681   0.20558
 Alpha virt. eigenvalues --    0.21228   0.22898   0.23933   0.25519   0.26894
 Alpha virt. eigenvalues --    0.30595   0.34368   0.36258   0.38869   0.42457

 Mulliken atomic charges:
              1
     1  C   -0.061719
     2  C   -0.188584
     3  C   -0.036085
     4  N   -0.403219
     5  N   -0.392188
     6  H    0.084257
     7  H    0.080800
     8  H    0.149011
     9  H    0.141837
    10  H    0.087240
    11  H    0.056109
    12  H    0.158357
    13  H    0.135126
    14  H    0.096845
    15  H    0.092216
 Sum of Mulliken atomic charges =   0.00000

 Dipole moment (field-independent basis, Debye):
    X=              1.3887    Y=              0.4287    Z=              0.7144  Tot=              1.6195
 Quadrupole moment (field-independent basis, Debye-Ang):
   XX=            -29.5155   YY=            -32.9567   ZZ=            -33.7309
   XY=             -1.4732   XZ=             -2.4805   YZ=             -0.6092

 Normal termination of Gaussian 09 at Sun Mar 20 10:31:13 2016.
