 Gaussian 09, Revision A.01,
 Gaussian 09:  EM64L-G09RevA.01  8-May-2009

 -------------
 # mp2/cc-pVTZ
 -------------

 --------------------------------------
 propanediamine_H_plus_GGg_single_point
 --------------------------------------
 Symbolic Z-matrix:
 Charge =  1 Multiplicity = 1

                         Standard orientation:
 ---------------------------------------------------------------------
 Center     Atomic      Atomic             Coordinates (Angstroms)
 Number     Number       Type             X           Y           Z
 ---------------------------------------------------------------------
      1          6           0        1.300196    0.500652    0.223405
      2          6           0        0.022052    1.135211   -0.346721
      3          6           0       -1.258705    0.553819    0.258030
      4          7           0       -1.343463   -0.928440   -0.067277
      5          7           0        1.316372   -0.969053   -0.043819
      6          1           0        1.326460    0.638740    1.309186
      7          1           0        2.183851    0.999477   -0.187827
      8          1           0        1.701646   -1.161776   -0.968256
      9          1           0        1.921136   -1.453017    0.617514
     10          1           0       -2.159926    1.045162   -0.113669
     11          1           0       -1.247768    0.629649    1.348532
     12          1           0       -0.304584   -1.278103   -0.013485
     13          1           0       -1.954743   -1.438859    0.574011
     14          1           0       -1.690049   -1.085272   -1.016906
     15          1           0        0.031351    2.210192   -0.138872
     16          1           0        0.001006    1.038158   -1.440837
 ---------------------------------------------------------------------

 SCF Done:  E(RHF) =  -228.783407951     A.U. after   11 cycles
 E2 =    -0.9637610276D+00 EUMP2 =    -0.22974716897825D+03

 The electronic state is 1-A.
 Alpha  occ. eigenvalues --  -15.83407 -15.72987 -11.45926 -11.42181 -11.40000
 Alpha  occ. eigenvalues --   -1.45743  -1.35613  -1.21303  -1.08494  -0.98497
 Alpha  occ. eigenvalues --   -0.92781  -0.91699  -0.84675  -0.80818  -0.78690
 Alpha  occ. eigenvalues --   -0.77078  -0.71683  -0.70085  -0.68139  -0.65468
 Alpha  occ. eigenvalues --   -0.57990
 Alpha virt. eigenvalues --   -0.04338  -0.00079   0.00032   0.01133   0.04350
 Alpha virt. eigenvalues --    0.05003   0.06046   0.07112   0.08433   0.10257
 Alpha virt. eigenvalues --    0.11254   0.13398   0.15451   0.18967   0.21306

 Mulliken atomic charges:
              1
     1  C   -0.097569
     2  C   -0.215131
     3  C   -0.130462
     4  N   -0.045056
     5  N   -0.387065
     6  H    0.132383
     7  H    0.147655
     8  H    0.174545
     9  H    0.190498
    10  H    0.171137
    11  H    0.154687
    12  H    0.229429
    13  H    0.199510
    14  H    0.188279
    15  H    0.154892
    16  H    0.132267
 Sum of Mulliken atomic charges =   1.00000

 Dipole moment (field-independent basis, Debye):
    X=             -2.2292    Y=             -2.1672    Z=             -0.2321  Tot=              3.1177
 Quadrupole moment (field-independent basis, Debye-Ang):
   XX=            -16.5779   YY=            -23.9151   ZZ=            -27.0705
   XY=              1.9916   XZ=              0.0955   YZ=              0.4278

 Normal termination of Gaussian 09 at Sun Mar 20 10:27:11 2016.
