 Gaussian 09, Revision A.01,
 Gaussian 09:  EM64L-G09RevA.01  8-May-2009

 -------------
 # mp2/cc-pVTZ
 -------------

 --------------------------------------
 propanediamine_H_plus_TTg_single_point
 --------------------------------------
 Symbolic Z-matrix:
 Charge =  1 Multiplicity = 1

                         Standard orientation:
 ---------------------------------------------------------------------
 Center     Atomic      Atomic             Coordinates (Angstroms)
 Number     Number       Type             X           Y           Z
 ---------------------------------------------------------------------
      1          6           0       -1.360073    0.504091    0.026574
      2          6           0       -0.059175   -0.325342   -0.007296
      3          6           0        1.180991    0.557183    0.039056
      4          7           0        2.446904   -0.300873   -0.027822
      5          7           0       -2.500779   -0.395580   -0.078725
      6          1           0       -1.374802    1.176364   -0.838420
      7          1           0       -1.364690    1.140827    0.927100
      8          1           0       -2.753924   -0.808347    0.814172
      9          1           0       -3.321276    0.073898   -0.446889
     10          1           0        1.258267    1.134297    0.963644
     11          1           0        1.239899    1.241613   -0.810803
     12          1           0        2.464881   -0.857067   -0.890075
     13          1           0        3.301481    0.266217   -0.002600
     14          1           0        2.484753   -0.959840    0.757815
     15          1           0       -0.056185   -1.019022    0.844559
     16          1           0       -0.071735   -0.929359   -0.922674
 ---------------------------------------------------------------------

 SCF Done:  E(RHF) =  -228.767187822     A.U. after   11 cycles
 E2 =    -0.9534428439D+00 EUMP2 =    -0.22972063066557D+03

 The electronic state is 1-A.
 Alpha  occ. eigenvalues --  -15.89121 -15.65808 -11.47817 -11.39518 -11.39459
 Alpha  occ. eigenvalues --   -1.50324  -1.30663  -1.21521  -1.07750  -0.98716
 Alpha  occ. eigenvalues --   -0.96551  -0.93707  -0.84184  -0.81761  -0.77882
 Alpha  occ. eigenvalues --   -0.75599  -0.70431  -0.68046  -0.66473  -0.63274
 Alpha  occ. eigenvalues --   -0.51432
 Alpha virt. eigenvalues --   -0.07355  -0.01075  -0.00927  -0.00115   0.03580
 Alpha virt. eigenvalues --    0.04968   0.06057   0.07838   0.08762   0.10716
 Alpha virt. eigenvalues --    0.11066   0.13965   0.15461   0.17550   0.21731

 Mulliken atomic charges:
              1
     1  C   -0.071089
     2  C   -0.183405
     3  C   -0.120799
     4  N    0.017922
     5  N   -0.379097
     6  H    0.111099
     7  H    0.096624
     8  H    0.158861
     9  H    0.172325
    10  H    0.162777
    11  H    0.163653
    12  H    0.207347
    13  H    0.213397
    14  H    0.206066
    15  H    0.114716
    16  H    0.129603
 Sum of Mulliken atomic charges =   1.00000

 Dipole moment (field-independent basis, Debye):
    X=              8.4177    Y=              0.0330    Z=              0.6529  Tot=              8.4431
 Quadrupole moment (field-independent basis, Debye-Ang):
   XX=              1.5039   YY=            -29.1546   ZZ=            -28.1710
   XY=             -4.7158   XZ=             -2.0165   YZ=             -1.7118

 Normal termination of Gaussian 09 at Sun Mar 20 10:22:13 2016.
