 Gaussian 09, Revision A.01,
 Gaussian 09:  EM64L-G09RevA.01  8-May-2009

 -------------
 # mp2/cc-pVTZ
 -------------

 ---------------------------
 pyrrolidine_eq_single_point
 ---------------------------
 Symbolic Z-matrix:
 Charge =  0 Multiplicity = 1

                         Standard orientation:
 ---------------------------------------------------------------------
 Center     Atomic      Atomic             Coordinates (Angstroms)
 Number     Number       Type             X           Y           Z
 ---------------------------------------------------------------------
      1          6           0        0.778866    1.030119   -0.056937
      2          6           0        1.165103   -0.447185    0.170590
      3          7           0        0.000491   -1.171847   -0.349274
      4          6           0       -1.164695   -0.448169    0.170667
      5          6           0       -0.779768    1.029435   -0.057037
      6          1           0        0.000917   -2.154508   -0.090489
      7          1           0       -1.328163   -0.629512    1.249925
      8          1           0       -2.074723   -0.742753   -0.361793
      9          1           0        2.075318   -0.740947   -0.362001
     10          1           0        1.328859   -0.628473    1.249815
     11          1           0       -1.199488    1.677471    0.718210
     12          1           0       -1.162320    1.378419   -1.020562
     13          1           0        1.161216    1.379634   -1.020351
     14          1           0        1.197906    1.678397    0.718475
 ---------------------------------------------------------------------

 SCF Done:  E(RHF) =  -211.219798314     A.U. after   11 cycles
 E2 =    -0.9003530263D+00 EUMP2 =    -0.21212015134060D+03

 The electronic state is 1-A.
 Alpha  occ. eigenvalues --  -15.53338 -11.24254 -11.24252 -11.21704 -11.21650
 Alpha  occ. eigenvalues --   -1.21081  -1.01610  -0.96795  -0.80248  -0.77907
 Alpha  occ. eigenvalues --   -0.68256  -0.65191  -0.58445  -0.55261  -0.50980
 Alpha  occ. eigenvalues --   -0.50867  -0.47716  -0.46926  -0.45427  -0.36463
 Alpha virt. eigenvalues --    0.13756   0.16904   0.17706   0.17936   0.20822
 Alpha virt. eigenvalues --    0.21393   0.22067   0.22698   0.27699   0.30031
 Alpha virt. eigenvalues --    0.31604   0.31636   0.36481   0.40133   0.42105

 Mulliken atomic charges:
              1
     1  C   -0.191242
     2  C   -0.078507
     3  N   -0.289270
     4  C   -0.078497
     5  C   -0.191238
     6  H    0.119727
     7  H    0.063074
     8  H    0.094390
     9  H    0.094388
    10  H    0.063081
    11  H    0.098269
    12  H    0.098777
    13  H    0.098782
    14  H    0.098267
 Sum of Mulliken atomic charges =   0.00000

 Dipole moment (field-independent basis, Debye):
    X=              0.0001    Y=             -0.0718    Z=              0.9774  Tot=              0.9800
 Quadrupole moment (field-independent basis, Debye-Ang):
   XX=            -31.8875   YY=            -31.1730   ZZ=            -33.9661
   XY=             -0.0004   XZ=              0.0005   YZ=             -1.3353

 Normal termination of Gaussian 09 at Sun Mar 20 10:04:38 2016.
