 Gaussian 09, Revision A.01,
 Gaussian 09:  EM64L-G09RevA.01  8-May-2009

 -------------
 # mp2/cc-pVTZ
 -------------

 ---------------------------
 pyrrolidine_ax_single_point
 ---------------------------
 Symbolic Z-matrix:
 Charge =  0 Multiplicity = 1

                         Standard orientation:
 ---------------------------------------------------------------------
 Center     Atomic      Atomic             Coordinates (Angstroms)
 Number     Number       Type             X           Y           Z
 ---------------------------------------------------------------------
      1          6           0        0.778205    1.031019   -0.071070
      2          6           0        1.160917   -0.452437    0.191133
      3          7           0        0.000147   -1.270749   -0.193799
      4          6           0       -1.160877   -0.452683    0.190937
      5          6           0       -0.778370    1.030938   -0.070818
      6          1           0        0.000252   -1.398656   -1.204195
      7          1           0       -1.348733   -0.611731    1.260658
      8          1           0       -2.054986   -0.775612   -0.350396
      9          1           0        2.055256   -0.775331   -0.349839
     10          1           0        1.348445   -0.611223    1.260955
     11          1           0       -1.195647    1.699369    0.689523
     12          1           0       -1.166219    1.363955   -1.039747
     13          1           0        1.165680    1.363621   -1.040296
     14          1           0        1.195672    1.699830    0.688832
 ---------------------------------------------------------------------

 SCF Done:  E(RHF) =  -211.218669297     A.U. after   11 cycles
 E2 =    -0.9012828339D+00 EUMP2 =    -0.21211995213132D+03

 The electronic state is 1-A.
 Alpha  occ. eigenvalues --  -15.53510 -11.24260 -11.24258 -11.21847 -11.21792
 Alpha  occ. eigenvalues --   -1.21096  -1.01575  -0.96711  -0.81194  -0.78333
 Alpha  occ. eigenvalues --   -0.67409  -0.63500  -0.58606  -0.58253  -0.50919
 Alpha  occ. eigenvalues --   -0.49283  -0.47655  -0.47414  -0.45666  -0.37123
 Alpha virt. eigenvalues --    0.13342   0.16123   0.17384   0.18423   0.21116
 Alpha virt. eigenvalues --    0.21224   0.22068   0.22640   0.27526   0.30860
 Alpha virt. eigenvalues --    0.31327   0.31805   0.38351   0.39108   0.41834

 Mulliken atomic charges:
              1
     1  C   -0.211537
     2  C   -0.084935
     3  N   -0.267145
     4  C   -0.084951
     5  C   -0.211553
     6  H    0.101034
     7  H    0.082932
     8  H    0.099835
     9  H    0.099838
    10  H    0.082928
    11  H    0.102285
    12  H    0.094498
    13  H    0.094483
    14  H    0.102288
 Sum of Mulliken atomic charges =   0.00000

 Dipole moment (field-independent basis, Debye):
    X=              0.0000    Y=              1.1329    Z=             -0.6832  Tot=              1.3230
 Quadrupole moment (field-independent basis, Debye-Ang):
   XX=            -31.6876   YY=            -36.9310   ZZ=            -30.4829
   XY=              0.0003   XZ=             -0.0001   YZ=              1.6556

 Normal termination of Gaussian 09 at Sun Mar 20 10:07:44 2016.
