                         Program Version 4.1.x  -  STABLE  -
|  1> ! RHF DLPNO-CCSD(T) cc-pVTZ RIJK cc-pVTZ/JK cc-pVTZ/C
|  2> ! KDIIS SOSCF TightSCF TightPNO
|  3>
|  4> %pal nprocs 8 end
|  5>
|  6> %maxcore 8000
|  7>
|  8> %scf maxiter 300
|  9>      shift shift 0.2 erroff 0.1 end
| 10> end
| 11>
| 12> * xyzfile 0 1 1_2_difluoroethane_a.xyz
| 13>
| 14>
| 15>                          ****END OF INPUT****

CARTESIAN COORDINATES (ANGSTROEM)
---------------------------------
  C      0.561440   -0.512600    0.000020
  F      1.779850    0.182880   -0.000020
  C     -0.561450    0.512610    0.000020
  F     -1.779850   -0.182900   -0.000020
  H      0.527740   -1.139600    0.895620
  H      0.527700   -1.139660   -0.895540
  H     -0.527760    1.139620    0.895620
  H     -0.527710    1.139680   -0.895530

 Total Charge           Charge          ....    0
 Multiplicity           Mult            ....    1
 Number of Electrons    NEL             ....   34
 Basis Dimension        Dim             ....  176

ORBITAL ENERGIES
----------------

  NO   OCC          E(Eh)            E(eV)
   0   2.0000     -26.287160      -715.3100
   1   2.0000     -26.287159      -715.3100
   2   2.0000     -11.325313      -308.1774
   3   2.0000     -11.324670      -308.1599
   4   2.0000      -1.596204       -43.4349
   5   2.0000      -1.590862       -43.2896
   6   2.0000      -1.041660       -28.3450
   7   2.0000      -0.883492       -24.0410
   8   2.0000      -0.734916       -19.9981
   9   2.0000      -0.718062       -19.5395
  10   2.0000      -0.706804       -19.2331
  11   2.0000      -0.683599       -18.6017
  12   2.0000      -0.656058       -17.8522
  13   2.0000      -0.624108       -16.9828
  14   2.0000      -0.567399       -15.4397
  15   2.0000      -0.515420       -14.0253
  16   2.0000      -0.513674       -13.9778
  17   0.0000       0.144607         3.9349
  18   0.0000       0.168398         4.5823
  19   0.0000       0.181215         4.9311
  20   0.0000       0.210652         5.7321
  21   0.0000       0.233010         6.3405

MULLIKEN ATOMIC CHARGES
-----------------------
   0 C :    0.166906
   1 F :   -0.317899
   2 C :    0.166906
   3 F :   -0.317902
   4 H :    0.075497
   5 H :    0.075497
   6 H :    0.075495
   7 H :    0.075499
Sum of atomic charges:    0.0000000

LOEWDIN ATOMIC CHARGES
----------------------
   0 C :   -0.030843
   1 F :    0.090867
   2 C :   -0.030836
   3 F :    0.090861
   4 H :   -0.030013
   5 H :   -0.030012
   6 H :   -0.030011
   7 H :   -0.030013

  Mayer bond orders larger than 0.1
B(  0-C ,  1-F ) :   0.9368 B(  0-C ,  2-C ) :   0.9830 B(  0-C ,  4-H ) :   0.9744
B(  0-C ,  5-H ) :   0.9744 B(  2-C ,  3-F ) :   0.9368 B(  2-C ,  6-H ) :   0.9744
B(  2-C ,  7-H ) :   0.9744

E(0)                                       ...   -277.032454145
E(0)                                       ...   -277.032454145
E(CORR)(strong-pairs)                      ...     -0.866690067
E(CORR)(weak-pairs)                        ...     -0.000469677
E(CORR)(corrected)                         ...     -0.867159744
E(TOT)                                     ...   -277.899613889
E(CCSD(T))                                 ...   -277.926388867
FINAL SINGLE POINT ENERGY      -277.926388866529

DIPOLE MOMENT
-------------
                                X             Y             Z
Electronic contribution:      0.00002      -0.00004      -0.00015
Nuclear contribution   :     -0.00002       0.00006       0.00020
                        -----------------------------------------
Total Dipole Moment    :     -0.00000       0.00002       0.00004
                        -----------------------------------------
Magnitude (a.u.)       :      0.00005
Magnitude (Debye)      :      0.00013

Rotational constants in cm-1:     1.055272     0.127348     0.118815
Rotational constants in MHz : 31636.259478  3817.809937  3561.993660

                             ****ORCA TERMINATED NORMALLY****
TOTAL RUN TIME: 0 days 0 hours 2 minutes 41 seconds 226 msec
