                         Program Version 4.1.x  -  STABLE  -
|  1> ! RHF DLPNO-CCSD(T) cc-pVTZ RIJK cc-pVTZ/JK cc-pVTZ/C
|  2> ! KDIIS SOSCF TightSCF TightPNO
|  3>
|  4> %pal nprocs 8 end
|  5>
|  6> %maxcore 8000
|  7>
|  8> %scf maxiter 300
|  9>      shift shift 0.2 erroff 0.1 end
| 10> end
| 11>
| 12> * xyzfile 0 1 1_2_difluoroethane_g.xyz
| 13>
| 14>
| 15>                          ****END OF INPUT****

CARTESIAN COORDINATES (ANGSTROEM)
---------------------------------
  C      0.682310    0.510750   -0.319990
  F      1.460080   -0.544510    0.172190
  C     -0.682300    0.510750    0.319990
  F     -1.460090   -0.544510   -0.172190
  H      0.606950    0.390070   -1.405270
  H      1.203390    1.446010   -0.082970
  H     -0.606940    0.390100    1.405270
  H     -1.203380    1.446010    0.082970

 Total Charge           Charge          ....    0
 Multiplicity           Mult            ....    1
 Number of Electrons    NEL             ....   34
 Basis Dimension        Dim             ....  176

ORBITAL ENERGIES
----------------

  NO   OCC          E(Eh)            E(eV)
   0   2.0000     -26.280454      -715.1275
   1   2.0000     -26.280453      -715.1275
   2   2.0000     -11.325525      -308.1832
   3   2.0000     -11.324840      -308.1646
   4   2.0000      -1.592976       -43.3471
   5   2.0000      -1.582868       -43.0720
   6   2.0000      -1.048007       -28.5177
   7   2.0000      -0.879059       -23.9204
   8   2.0000      -0.727673       -19.8010
   9   2.0000      -0.726530       -19.7699
  10   2.0000      -0.698801       -19.0153
  11   2.0000      -0.669892       -18.2287
  12   2.0000      -0.664472       -18.0812
  13   2.0000      -0.618778       -16.8378
  14   2.0000      -0.543872       -14.7995
  15   2.0000      -0.533001       -14.5037
  16   2.0000      -0.514001       -13.9867
  17   0.0000       0.137801         3.7498
  18   0.0000       0.173170         4.7122
  19   0.0000       0.195886         5.3303
  20   0.0000       0.207671         5.6510
  21   0.0000       0.238262         6.4834

MULLIKEN ATOMIC CHARGES
-----------------------
   0 C :    0.175761
   1 F :   -0.311826
   2 C :    0.175761
   3 F :   -0.311832
   4 H :    0.075668
   5 H :    0.060399
   6 H :    0.075670
   7 H :    0.060399
Sum of atomic charges:   -0.0000000

LOEWDIN ATOMIC CHARGES
----------------------
   0 C :   -0.042243
   1 F :    0.094043
   2 C :   -0.042231
   3 F :    0.094029
   4 H :   -0.025785
   5 H :   -0.026013
   6 H :   -0.025786
   7 H :   -0.026013

  Mayer bond orders larger than 0.1
B(  0-C ,  1-F ) :   0.9482 B(  0-C ,  2-C ) :   0.9835 B(  0-C ,  4-H ) :   0.9728
B(  0-C ,  5-H ) :   0.9678 B(  2-C ,  3-F ) :   0.9482 B(  2-C ,  6-H ) :   0.9728
B(  2-C ,  7-H ) :   0.9678

E(0)                                       ...   -277.032840759
E(0)                                       ...   -277.032840759
E(CORR)(strong-pairs)                      ...     -0.867246509
E(CORR)(weak-pairs)                        ...     -0.000472757
E(CORR)(corrected)                         ...     -0.867719267
E(TOT)                                     ...   -277.900560026
E(CCSD(T))                                 ...   -277.927401924
FINAL SINGLE POINT ENERGY      -277.927401924148

DIPOLE MOMENT
-------------
                                X             Y             Z
Electronic contribution:     -0.00001      -3.38492       0.00001
Nuclear contribution   :      0.00003       4.58988       0.00000
                        -----------------------------------------
Total Dipole Moment    :      0.00002       1.20496       0.00001
                        -----------------------------------------
Magnitude (a.u.)       :      1.20496
Magnitude (Debye)      :      3.06276

Rotational constants in cm-1:     0.576649     0.162989     0.143313
Rotational constants in MHz : 17287.492313  4886.278108  4296.401278

                             ****ORCA TERMINATED NORMALLY****
TOTAL RUN TIME: 0 days 0 hours 1 minutes 25 seconds 445 msec
