                         Program Version 4.1.x  -  STABLE  -
|  1> ! RHF DLPNO-CCSD(T) cc-pVTZ RIJK cc-pVTZ/JK cc-pVTZ/C
|  2> ! KDIIS SOSCF TightSCF TightPNO
|  3>
|  4> %pal nprocs 8 end
|  5>
|  6> %maxcore 8000
|  7>
|  8> %scf maxiter 300
|  9>      shift shift 0.2 erroff 0.1 end
| 10> end
| 11>
| 12> * xyzfile 0 1 1_2_dichloroethane_a.xyz
| 13>
| 14>
| 15>                          ****END OF INPUT****

CARTESIAN COORDINATES (ANGSTROEM)
---------------------------------
  C     -0.490110   -0.579940    0.000020
  Cl    -2.185060    0.070500   -0.000010
  C      0.490100    0.579960    0.000020
  Cl     2.185060   -0.070510   -0.000010
  H     -0.381470   -1.197550   -0.891390
  H     -0.381510   -1.197530    0.891440
  H      0.381500    1.197570   -0.891380
  H      0.381480    1.197580    0.891430

 Total Charge           Charge          ....    0
 Multiplicity           Mult            ....    1
 Number of Electrons    NEL             ....   50
 Basis Dimension        Dim             ....  184

ORBITAL ENERGIES
----------------

  NO   OCC          E(Eh)            E(eV)
   0   2.0000    -104.836358     -2852.7423
   1   2.0000    -104.836357     -2852.7423
   2   2.0000     -11.317340      -307.9605
   3   2.0000     -11.316702      -307.9431
   4   2.0000     -10.561166      -287.3839
   5   2.0000     -10.561164      -287.3839
   6   2.0000      -8.027905      -218.4504
   7   2.0000      -8.027904      -218.4504
   8   2.0000      -8.026171      -218.4032
   9   2.0000      -8.026170      -218.4032
  10   2.0000      -8.026128      -218.4020
  11   2.0000      -8.026127      -218.4020
  12   2.0000      -1.168953       -31.8088
  13   2.0000      -1.115477       -30.3537
  14   2.0000      -0.976892       -26.5826
  15   2.0000      -0.855368       -23.2757
  16   2.0000      -0.686434       -18.6788
  17   2.0000      -0.608100       -16.5472
  18   2.0000      -0.598630       -16.2896
  19   2.0000      -0.577315       -15.7095
  20   2.0000      -0.519139       -14.1265
  21   2.0000      -0.460698       -12.5362
  22   2.0000      -0.450227       -12.2513
  23   2.0000      -0.446864       -12.1598
  24   2.0000      -0.441462       -12.0128
  25   0.0000       0.130669         3.5557
  26   0.0000       0.155388         4.2283
  27   0.0000       0.170365         4.6359
  28   0.0000       0.177370         4.8265
  29   0.0000       0.210651         5.7321

MULLIKEN ATOMIC CHARGES
-----------------------
   0 C :   -0.060681
   1 Cl:   -0.215566
   2 C :   -0.060683
   3 Cl:   -0.215573
   4 H :    0.138124
   5 H :    0.138126
   6 H :    0.138129
   7 H :    0.138122
Sum of atomic charges:   -0.0000000

LOEWDIN ATOMIC CHARGES
----------------------
   0 C :   -0.112284
   1 Cl:    0.176399
   2 C :   -0.112265
   3 Cl:    0.176380
   4 H :   -0.032055
   5 H :   -0.032059
   6 H :   -0.032062
   7 H :   -0.032053

  Mayer bond orders larger than 0.1
B(  0-C ,  1-Cl) :   0.9541 B(  0-C ,  2-C ) :   0.9630 B(  0-C ,  4-H ) :   0.9695
B(  0-C ,  5-H ) :   0.9695 B(  2-C ,  3-Cl) :   0.9541 B(  2-C ,  6-H ) :   0.9695
B(  2-C ,  7-H ) :   0.9695

E(0)                                       ...   -997.134596722
E(0)                                       ...   -997.134596722
E(CORR)(strong-pairs)                      ...     -0.774149510
E(CORR)(weak-pairs)                        ...     -0.000400353
E(CORR)(corrected)                         ...     -0.774549863
E(TOT)                                     ...   -997.909146585
E(CCSD(T))                                 ...   -997.940327462
FINAL SINGLE POINT ENERGY      -997.940327461937

DIPOLE MOMENT
-------------
                                X             Y             Z
Electronic contribution:     -0.00002      -0.00006      -0.00010
Nuclear contribution   :      0.00000       0.00008       0.00012
                        -----------------------------------------
Total Dipole Moment    :     -0.00002       0.00002       0.00002
                        -----------------------------------------
Magnitude (a.u.)       :      0.00004
Magnitude (Debye)      :      0.00010

Rotational constants in cm-1:     0.968660     0.048425     0.046943
Rotational constants in MHz : 29039.685351  1451.756080  1407.306033

                             ****ORCA TERMINATED NORMALLY****
TOTAL RUN TIME: 0 days 0 hours 1 minutes 54 seconds 843 msec
