                         Program Version 4.1.x  -  STABLE  -
|  1> ! RHF DLPNO-CCSD(T) cc-pVTZ RIJK cc-pVTZ/JK cc-pVTZ/C
|  2> ! KDIIS SOSCF TightSCF TightPNO
|  3>
|  4> %pal nprocs 8 end
|  5>
|  6> %maxcore 8000
|  7>
|  8> %scf maxiter 300
|  9>      shift shift 0.2 erroff 0.1 end
| 10> end
| 11>
| 12> * xyzfile 0 1 1_2_DCE_g.xyz
| 13>
| 14>
| 15>                          ****END OF INPUT****

CARTESIAN COORDINATES (ANGSTROEM)
---------------------------------
  C      1.548050   -0.176850    0.077150
  N      2.259950   -1.049270   -0.204600
  C      0.656890    0.937830    0.410870
  C     -0.656990    0.937890   -0.410820
  C     -1.548090   -0.176870   -0.077260
  N     -2.259820   -1.049400    0.204610
  H      0.433570    0.905130    1.482160
  H      1.191000    1.874030    0.216290
  H     -1.191090    1.874050   -0.216050
  H     -0.433630    0.905420   -1.482110

 Total Charge           Charge          ....    0
 Multiplicity           Mult            ....    1
 Number of Electrons    NEL             ....   42
 Basis Dimension        Dim             ....  236

ORBITAL ENERGIES
----------------

  NO   OCC          E(Eh)            E(eV)
   0   2.0000     -15.589266      -424.2055
   1   2.0000     -15.589260      -424.2053
   2   2.0000     -11.322469      -308.1000
   3   2.0000     -11.321916      -308.0850
   4   2.0000     -11.292622      -307.2879
   5   2.0000     -11.292617      -307.2877
   6   2.0000      -1.237686       -33.6792
   7   2.0000      -1.229777       -33.4639
   8   2.0000      -1.128036       -30.6954
   9   2.0000      -0.981784       -26.7157
  10   2.0000      -0.753510       -20.5040
  11   2.0000      -0.726596       -19.7717
  12   2.0000      -0.648702       -17.6521
  13   2.0000      -0.639074       -17.3901
  14   2.0000      -0.609266       -16.5790
  15   2.0000      -0.569320       -15.4920
  16   2.0000      -0.566879       -15.4256
  17   2.0000      -0.487603       -13.2684
  18   2.0000      -0.476773       -12.9736
  19   2.0000      -0.472725       -12.8635
  20   2.0000      -0.466625       -12.6975
  21   0.0000       0.096069         2.6142
  22   0.0000       0.141294         3.8448
  23   0.0000       0.141973         3.8633
  24   0.0000       0.152484         4.1493
  25   0.0000       0.181254         4.9322

MULLIKEN ATOMIC CHARGES
-----------------------
   0 C :   -0.066490
   1 N :   -0.083392
   2 C :   -0.161872
   3 C :   -0.161878
   4 C :   -0.066480
   5 N :   -0.083396
   6 H :    0.155090
   7 H :    0.156665
   8 H :    0.156666
   9 H :    0.155087
Sum of atomic charges:   -0.0000000

LOEWDIN ATOMIC CHARGES
----------------------
   0 C :   -0.170116
   1 N :    0.097924
   2 C :    0.053634
   3 C :    0.053627
   4 C :   -0.170113
   5 N :    0.097925
   6 H :    0.009872
   7 H :    0.008689
   8 H :    0.008687
   9 H :    0.009870

  Mayer bond orders larger than 0.1
B(  0-C ,  1-N ) :   3.1109 B(  0-C ,  2-C ) :   0.9770 B(  2-C ,  3-C ) :   0.9494
B(  2-C ,  6-H ) :   0.9626 B(  2-C ,  7-H ) :   0.9709 B(  3-C ,  4-C ) :   0.9770
B(  3-C ,  8-H ) :   0.9709 B(  3-C ,  9-H ) :   0.9626 B(  4-C ,  5-N ) :   3.1109

E(0)                                       ...   -262.771478539
E(0)                                       ...   -262.771478539
E(CORR)(strong-pairs)                      ...     -1.028372915
E(CORR)(weak-pairs)                        ...     -0.000600229
E(CORR)(corrected)                         ...     -1.028973143
E(TOT)                                     ...   -263.800451682
E(CCSD(T))                                 ...   -263.850030526
FINAL SINGLE POINT ENERGY      -263.850030526173

DIPOLE MOMENT
-------------
                                X             Y             Z
Electronic contribution:     -0.00000      -3.11601      -0.00026
Nuclear contribution   :     -0.00014       5.46246       0.00029
                        -----------------------------------------
Total Dipole Moment    :     -0.00014       2.34645       0.00003
                        -----------------------------------------
Magnitude (a.u.)       :      2.34645
Magnitude (Debye)      :      5.96420

Rotational constants in cm-1:     0.237572     0.075211     0.061225
Rotational constants in MHz :  7122.236203  2254.763770  1835.469833

                             ****ORCA TERMINATED NORMALLY****
TOTAL RUN TIME: 0 days 0 hours 2 minutes 51 seconds 77 msec
