                         Program Version 4.1.x  -  STABLE  -
|  1> ! RHF DLPNO-CCSD(T) cc-pVTZ RIJK cc-pVTZ/JK cc-pVTZ/C
|  2> ! KDIIS SOSCF TightSCF TightPNO
|  3>
|  4> %pal nprocs 8 end
|  5>
|  6> %maxcore 8000
|  7>
|  8> %scf maxiter 300
|  9>      shift shift 0.2 erroff 0.1 end
| 10> end
| 11>
| 12> * xyzfile 0 1 1_2_dichloroethane_g.xyz
| 13>
| 14>
| 15>                          ****END OF INPUT****

CARTESIAN COORDINATES (ANGSTROEM)
---------------------------------
  C     -0.654040    0.894590    0.382330
  Cl    -1.747090   -0.471010   -0.080930
  C      0.654040    0.894590   -0.382330
  Cl     1.747100   -0.471000    0.080930
  H     -0.489600    0.822810    1.458040
  H     -1.196370    1.816730    0.158270
  H      0.489600    0.822820   -1.458040
  H      1.196360    1.816730   -0.158270

 Total Charge           Charge          ....    0
 Multiplicity           Mult            ....    1
 Number of Electrons    NEL             ....   50
 Basis Dimension        Dim             ....  184

ORBITAL ENERGIES
----------------

  NO   OCC          E(Eh)            E(eV)
   0   2.0000    -104.830191     -2852.5745
   1   2.0000    -104.830191     -2852.5745
   2   2.0000     -11.316860      -307.9474
   3   2.0000     -11.316211      -307.9298
   4   2.0000     -10.555037      -287.2172
   5   2.0000     -10.555035      -287.2171
   6   2.0000      -8.021798      -218.2842
   7   2.0000      -8.021797      -218.2842
   8   2.0000      -8.020023      -218.2359
   9   2.0000      -8.020022      -218.2359
  10   2.0000      -8.019980      -218.2348
  11   2.0000      -8.019979      -218.2347
  12   2.0000      -1.166520       -31.7426
  13   2.0000      -1.107668       -30.1412
  14   2.0000      -0.984959       -26.8021
  15   2.0000      -0.844701       -22.9855
  16   2.0000      -0.665588       -18.1116
  17   2.0000      -0.650799       -17.7091
  18   2.0000      -0.599631       -16.3168
  19   2.0000      -0.540876       -14.7180
  20   2.0000      -0.527545       -14.3552
  21   2.0000      -0.453963       -12.3530
  22   2.0000      -0.447271       -12.1709
  23   2.0000      -0.438144       -11.9225
  24   2.0000      -0.436637       -11.8815
  25   0.0000       0.122232         3.3261
  26   0.0000       0.166598         4.5334
  27   0.0000       0.171764         4.6739
  28   0.0000       0.179876         4.8947
  29   0.0000       0.198369         5.3979

MULLIKEN ATOMIC CHARGES
-----------------------
   0 C :   -0.067766
   1 Cl:   -0.199322
   2 C :   -0.067767
   3 Cl:   -0.199320
   4 H :    0.135043
   5 H :    0.132045
   6 H :    0.135043
   7 H :    0.132045
Sum of atomic charges:   -0.0000000

LOEWDIN ATOMIC CHARGES
----------------------
   0 C :   -0.119862
   1 Cl:    0.181010
   2 C :   -0.119863
   3 Cl:    0.181013
   4 H :   -0.031665
   5 H :   -0.029483
   6 H :   -0.031664
   7 H :   -0.029486

  Mayer bond orders larger than 0.1
B(  0-C ,  1-Cl) :   0.9737 B(  0-C ,  2-C ) :   0.9568 B(  0-C ,  4-H ) :   0.9680
B(  0-C ,  5-H ) :   0.9715 B(  2-C ,  3-Cl) :   0.9737 B(  2-C ,  6-H ) :   0.9680
B(  2-C ,  7-H ) :   0.9715

E(0)                                       ...   -997.131533220
E(0)                                       ...   -997.131533220
E(CORR)(strong-pairs)                      ...     -0.774856384
E(CORR)(weak-pairs)                        ...     -0.000398133
E(CORR)(corrected)                         ...     -0.775254516
E(TOT)                                     ...   -997.906787736
E(CCSD(T))                                 ...   -997.937969477
FINAL SINGLE POINT ENERGY      -997.937969477177

DIPOLE MOMENT
-------------
                                X             Y             Z
Electronic contribution:      0.00003      -5.07304       0.00000
Nuclear contribution   :     -0.00003       6.28819      -0.00000
                        -----------------------------------------
Total Dipole Moment    :     -0.00000       1.21514       0.00000
                        -----------------------------------------
Magnitude (a.u.)       :      1.21514
Magnitude (Debye)      :      3.08865

Rotational constants in cm-1:     0.331677     0.070716     0.061833
Rotational constants in MHz :  9943.414980  2120.004875  1853.713541

                             ****ORCA TERMINATED NORMALLY****
TOTAL RUN TIME: 0 days 0 hours 3 minutes 7 seconds 360 msec
