                         Program Version 4.1.x  -  STABLE  -
|  1> ! RHF DLPNO-CCSD(T) cc-pVTZ RIJK cc-pVTZ/JK cc-pVTZ/C
|  2> ! KDIIS SOSCF TightSCF TightPNO
|  3>
|  4> %pal nprocs 8 end
|  5>
|  6> %maxcore 8000
|  7>
|  8> %scf maxiter 300
|  9>      shift shift 0.2 erroff 0.1 end
| 10> end
| 11>
| 12> * xyzfile 0 1 1_2_ethanediol_a_a_a.xyz
| 13>
| 14>
| 15>                          ****END OF INPUT****

CARTESIAN COORDINATES (ANGSTROEM)
---------------------------------
  C     -0.574610    0.497900    0.000080
  O     -1.784380   -0.260910   -0.000010
  C      0.574610   -0.497890   -0.000010
  O      1.784390    0.260890   -0.000110
  H     -0.501530    1.136820    0.891020
  H     -0.501490    1.136990   -0.890740
  H      0.501550   -1.136910    0.890860
  H      0.501430   -1.136890   -0.890890
  H     -2.537550    0.341860   -0.000170
  H      2.537550   -0.341880    0.000540

 Total Charge           Charge          ....    0
 Multiplicity           Mult            ....    1
 Number of Electrons    NEL             ....   34
 Basis Dimension        Dim             ....  204

ORBITAL ENERGIES
----------------

  NO   OCC          E(Eh)            E(eV)
   0   2.0000     -20.555615      -559.3467
   1   2.0000     -20.555613      -559.3467
   2   2.0000     -11.275021      -306.8089
   3   2.0000     -11.274378      -306.7914
   4   2.0000      -1.362197       -37.0673
   5   2.0000      -1.349338       -36.7173
   6   2.0000      -0.995352       -27.0849
   7   2.0000      -0.828420       -22.5424
   8   2.0000      -0.715544       -19.4710
   9   2.0000      -0.665332       -18.1046
  10   2.0000      -0.663076       -18.0432
  11   2.0000      -0.576736       -15.6938
  12   2.0000      -0.576532       -15.6882
  13   2.0000      -0.535224       -14.5642
  14   2.0000      -0.479497       -13.0478
  15   2.0000      -0.454637       -12.3713
  16   2.0000      -0.441128       -12.0037
  17   0.0000       0.142848         3.8871
  18   0.0000       0.144189         3.9236
  19   0.0000       0.197562         5.3759
  20   0.0000       0.198525         5.4021
  21   0.0000       0.199955         5.4411

MULLIKEN ATOMIC CHARGES
-----------------------
   0 C :    0.070686
   1 O :   -0.420011
   2 C :    0.070688
   3 O :   -0.420005
   4 H :    0.062831
   5 H :    0.062835
   6 H :    0.062829
   7 H :    0.062832
   8 H :    0.223658
   9 H :    0.223656
Sum of atomic charges:    0.0000000

LOEWDIN ATOMIC CHARGES
----------------------
   0 C :   -0.041440
   1 O :    0.310575
   2 C :   -0.041448
   3 O :    0.310589
   4 H :   -0.039117
   5 H :   -0.039111
   6 H :   -0.039115
   7 H :   -0.039113
   8 H :   -0.190906
   9 H :   -0.190915

  Mayer bond orders larger than 0.1
B(  0-C ,  1-O ) :   0.9916 B(  0-C ,  2-C ) :   0.9774 B(  0-C ,  4-H ) :   0.9733
B(  0-C ,  5-H ) :   0.9733 B(  1-O ,  8-H ) :   0.9935 B(  2-C ,  3-O ) :   0.9917
B(  2-C ,  6-H ) :   0.9733 B(  2-C ,  7-H ) :   0.9733 B(  3-O ,  9-H ) :   0.9935

E(0)                                       ...   -229.023188066
E(0)                                       ...   -229.023188066
E(CORR)(strong-pairs)                      ...     -0.859506343
E(CORR)(weak-pairs)                        ...     -0.000518330
E(CORR)(corrected)                         ...     -0.860024673
E(TOT)                                     ...   -229.883212740
E(CCSD(T))                                 ...   -229.913043327
FINAL SINGLE POINT ENERGY      -229.913043326714

DIPOLE MOMENT
-------------
                                X             Y             Z
Electronic contribution:      0.00004       0.00000      -0.00022
Nuclear contribution   :     -0.00005       0.00001       0.00062
                        -----------------------------------------
Total Dipole Moment    :     -0.00000       0.00001       0.00040
                        -----------------------------------------
Magnitude (a.u.)       :      0.00040
Magnitude (Debye)      :      0.00101

Rotational constants in cm-1:     1.013257     0.132578     0.122699
Rotational constants in MHz : 30376.687862  3974.584438  3678.436014

                             ****ORCA TERMINATED NORMALLY****
TOTAL RUN TIME: 0 days 0 hours 1 minutes 54 seconds 258 msec
