                         Program Version 4.1.x  -  STABLE  -
|  1> ! RHF DLPNO-CCSD(T) cc-pVTZ RIJK cc-pVTZ/JK cc-pVTZ/C
|  2> ! KDIIS SOSCF TightSCF TightPNO
|  3>
|  4> %pal nprocs 8 end
|  5>
|  6> %maxcore 8000
|  7>
|  8> %scf maxiter 300
|  9>      shift shift 0.2 erroff 0.1 end
| 10> end
| 11>
| 12> * xyzfile 0 1 1_2_DCE_t.xyz
| 13>
| 14>
| 15>                          ****END OF INPUT****

CARTESIAN COORDINATES (ANGSTROEM)
---------------------------------
  C      1.883680    0.160010   -0.000100
  N      2.984720   -0.207990    0.000040
  C      0.487420    0.603120    0.000020
  C     -0.487380   -0.602990   -0.000020
  C     -1.883660   -0.159930    0.000100
  N     -2.984790    0.207770   -0.000040
  H      0.314140    1.228620    0.881740
  H      0.313990    1.228800   -0.881540
  H     -0.314110   -1.228500   -0.881740
  H     -0.313950   -1.228660    0.881550

 Total Charge           Charge          ....    0
 Multiplicity           Mult            ....    1
 Number of Electrons    NEL             ....   42
 Basis Dimension        Dim             ....  236

ORBITAL ENERGIES
----------------

  NO   OCC          E(Eh)            E(eV)
   0   2.0000     -15.594200      -424.3398
   1   2.0000     -15.594196      -424.3396
   2   2.0000     -11.322679      -308.1058
   3   2.0000     -11.322128      -308.0908
   4   2.0000     -11.297844      -307.4300
   5   2.0000     -11.297839      -307.4298
   6   2.0000      -1.241863       -33.7928
   7   2.0000      -1.235827       -33.6286
   8   2.0000      -1.129706       -30.7409
   9   2.0000      -0.983672       -26.7671
  10   2.0000      -0.755019       -20.5451
  11   2.0000      -0.704602       -19.1732
  12   2.0000      -0.694814       -18.9068
  13   2.0000      -0.622193       -16.9307
  14   2.0000      -0.601465       -16.3667
  15   2.0000      -0.580215       -15.7884
  16   2.0000      -0.569830       -15.5059
  17   2.0000      -0.493644       -13.4327
  18   2.0000      -0.480231       -13.0678
  19   2.0000      -0.478478       -13.0200
  20   2.0000      -0.471000       -12.8165
  21   0.0000       0.102339         2.7848
  22   0.0000       0.140952         3.8355
  23   0.0000       0.142087         3.8664
  24   0.0000       0.156532         4.2594
  25   0.0000       0.157466         4.2849

MULLIKEN ATOMIC CHARGES
-----------------------
   0 C :   -0.080774
   1 N :   -0.088428
   2 C :   -0.143285
   3 C :   -0.143274
   4 C :   -0.080785
   5 N :   -0.088420
   6 H :    0.156241
   7 H :    0.156240
   8 H :    0.156243
   9 H :    0.156242
Sum of atomic charges:   -0.0000000

LOEWDIN ATOMIC CHARGES
----------------------
   0 C :   -0.169956
   1 N :    0.094507
   2 C :    0.055415
   3 C :    0.055419
   4 C :   -0.169962
   5 N :    0.094512
   6 H :    0.010017
   7 H :    0.010012
   8 H :    0.010021
   9 H :    0.010015

  Mayer bond orders larger than 0.1
B(  0-C ,  1-N ) :   3.1100 B(  0-C ,  2-C ) :   0.9864 B(  2-C ,  3-C ) :   0.9505
B(  2-C ,  6-H ) :   0.9638 B(  2-C ,  7-H ) :   0.9638 B(  3-C ,  4-C ) :   0.9864
B(  3-C ,  8-H ) :   0.9638 B(  3-C ,  9-H ) :   0.9638 B(  4-C ,  5-N ) :   3.1100

E(0)                                       ...   -262.773570186
E(0)                                       ...   -262.773570186
E(CORR)(strong-pairs)                      ...     -1.027785818
E(CORR)(weak-pairs)                        ...     -0.000624399
E(CORR)(corrected)                         ...     -1.028410217
E(TOT)                                     ...   -263.801980403
E(CCSD(T))                                 ...   -263.851489027
FINAL SINGLE POINT ENERGY      -263.851489026502

DIPOLE MOMENT
-------------
                                X             Y             Z
Electronic contribution:     -0.00000      -0.00004      -0.00001
Nuclear contribution   :      0.00007       0.00026       0.00001
                        -----------------------------------------
Total Dipole Moment    :      0.00007       0.00021       0.00000
                        -----------------------------------------
Magnitude (a.u.)       :      0.00022
Magnitude (Debye)      :      0.00057

Rotational constants in cm-1:     0.852473     0.048998     0.047147
Rotational constants in MHz : 25556.509011  1468.909614  1413.420957

                             ****ORCA TERMINATED NORMALLY****
TOTAL RUN TIME: 0 days 0 hours 2 minutes 48 seconds 818 msec
