                         Program Version 4.1.x  -  STABLE  -
|  1> ! RHF DLPNO-CCSD(T) cc-pVTZ RIJK cc-pVTZ/JK cc-pVTZ/C
|  2> ! KDIIS SOSCF TightSCF TightPNO
|  3>
|  4> %pal nprocs 8 end
|  5>
|  6> %maxcore 8000
|  7>
|  8> %scf maxiter 300
|  9>      shift shift 0.2 erroff 0.1 end
| 10> end
| 11>
| 12> * xyzfile 0 1 1_2_ethanediol_g__g_plus_a.xyz
| 13>
| 14>
| 15>                          ****END OF INPUT****

CARTESIAN COORDINATES (ANGSTROEM)
---------------------------------
  C     -0.686720    0.603120   -0.269290
  C      0.731440    0.568760    0.274080
  O     -1.341150   -0.576420    0.216730
  O      1.450410   -0.565280   -0.192740
  H     -1.201110    1.509630    0.082350
  H     -0.661640    0.607060   -1.367390
  H      1.280340    1.452200   -0.066150
  H      0.697810    0.585740    1.373980
  H     -2.171180   -0.708270   -0.256710
  H      0.913300   -1.343990    0.013250

 Total Charge           Charge          ....    0
 Multiplicity           Mult            ....    1
 Number of Electrons    NEL             ....   34
 Basis Dimension        Dim             ....  204

ORBITAL ENERGIES
----------------

  NO   OCC          E(Eh)            E(eV)
   0   2.0000     -20.564825      -559.5973
   1   2.0000     -20.545839      -559.0807
   2   2.0000     -11.282569      -307.0143
   3   2.0000     -11.274011      -306.7814
   4   2.0000      -1.370852       -37.3028
   5   2.0000      -1.341450       -36.5027
   6   2.0000      -0.999307       -27.1925
   7   2.0000      -0.837074       -22.7779
   8   2.0000      -0.719979       -19.5916
   9   2.0000      -0.668581       -18.1930
  10   2.0000      -0.645299       -17.5595
  11   2.0000      -0.600717       -16.3463
  12   2.0000      -0.568009       -15.4563
  13   2.0000      -0.530709       -14.4413
  14   2.0000      -0.494371       -13.4525
  15   2.0000      -0.458771       -12.4838
  16   2.0000      -0.438328       -11.9275
  17   0.0000       0.134169         3.6509
  18   0.0000       0.165117         4.4931
  19   0.0000       0.183825         5.0021
  20   0.0000       0.201665         5.4876
  21   0.0000       0.211880         5.7656

MULLIKEN ATOMIC CHARGES
-----------------------
   0 C :    0.054170
   1 C :    0.076512
   2 O :   -0.435318
   3 O :   -0.436951
   4 H :    0.061778
   5 H :    0.066216
   6 H :    0.083297
   7 H :    0.062484
   8 H :    0.228800
   9 H :    0.239011
Sum of atomic charges:    0.0000000

LOEWDIN ATOMIC CHARGES
----------------------
   0 C :   -0.042554
   1 C :   -0.054494
   2 O :    0.305568
   3 O :    0.307231
   4 H :   -0.036855
   5 H :   -0.038056
   6 H :   -0.026549
   7 H :   -0.035876
   8 H :   -0.191114
   9 H :   -0.187301

  Mayer bond orders larger than 0.1
B(  0-C ,  1-C ) :   0.9677 B(  0-C ,  2-O ) :   0.9757 B(  0-C ,  4-H ) :   0.9741
B(  0-C ,  5-H ) :   0.9737 B(  1-C ,  3-O ) :   0.9967 B(  1-C ,  6-H ) :   0.9776
B(  1-C ,  7-H ) :   0.9767 B(  2-O ,  8-H ) :   0.9898 B(  3-O ,  9-H ) :   0.9714

E(0)                                       ...   -229.025888140
E(0)                                       ...   -229.025888140
E(CORR)(strong-pairs)                      ...     -0.860858993
E(CORR)(weak-pairs)                        ...     -0.000528598
E(CORR)(corrected)                         ...     -0.861387591
E(TOT)                                     ...   -229.887275731
E(CCSD(T))                                 ...   -229.917405731
FINAL SINGLE POINT ENERGY      -229.917405731066

DIPOLE MOMENT
-------------
                                X             Y             Z
Electronic contribution:      0.26502      -1.75478       0.03052
Nuclear contribution   :     -1.17358       2.14436      -0.22663
                        -----------------------------------------
Total Dipole Moment    :     -0.90856       0.38957      -0.19611
                        -----------------------------------------
Magnitude (a.u.)       :      1.00782
Magnitude (Debye)      :      2.56168

Rotational constants in cm-1:     0.510871     0.185007     0.152861
Rotational constants in MHz : 15315.527392  5546.378912  4582.660120

                             ****ORCA TERMINATED NORMALLY****
TOTAL RUN TIME: 0 days 0 hours 1 minutes 53 seconds 823 msec
