                         Program Version 4.1.x  -  STABLE  -
|  1> ! RHF DLPNO-CCSD(T) cc-pVTZ RIJK cc-pVTZ/JK cc-pVTZ/C
|  2> ! KDIIS SOSCF TightSCF TightPNO
|  3>
|  4> %pal nprocs 8 end
|  5>
|  6> %maxcore 8000
|  7>
|  8> %scf maxiter 300
|  9>      shift shift 0.2 erroff 0.1 end
| 10> end
| 11>
| 12> * xyzfile 0 1 1_3_dichloropropane_a_g.xyz
| 13>
| 14>
| 15>                          ****END OF INPUT****

CARTESIAN COORDINATES (ANGSTROEM)
---------------------------------
  C     -1.386990    0.942630    0.207970
  Cl    -2.347190   -0.575420   -0.103660
  C      0.052390    0.838300   -0.285440
  C      0.869320   -0.206990    0.464990
  Cl     2.593240   -0.220990   -0.110210
  H     -1.440470    1.118200    1.284510
  H     -1.916270    1.743410   -0.309650
  H      0.064460    0.621060   -1.358190
  H      0.513900    1.824870   -0.149650
  H      0.905200    0.001100    1.536460
  H      0.482030   -1.213310    0.307200

 Total Charge           Charge          ....    0
 Multiplicity           Mult            ....    1
 Number of Electrons    NEL             ....   58
 Basis Dimension        Dim             ....  242

ORBITAL ENERGIES
----------------

  NO   OCC          E(Eh)            E(eV)
   0   2.0000    -104.829528     -2852.5565
   1   2.0000    -104.824091     -2852.4085
   2   2.0000     -11.312143      -307.8191
   3   2.0000     -11.303412      -307.5815
   4   2.0000     -11.260654      -306.4180
   5   2.0000     -10.554439      -287.2009
   6   2.0000     -10.548968      -287.0520
   7   2.0000      -8.021163      -218.2669
   8   2.0000      -8.019481      -218.2212
   9   2.0000      -8.019455      -218.2205
  10   2.0000      -8.015709      -218.1185
  11   2.0000      -8.014010      -218.0723
  12   2.0000      -8.013985      -218.0716
  13   2.0000      -1.156800       -31.4781
  14   2.0000      -1.121506       -30.5177
  15   2.0000      -1.027752       -27.9666
  16   2.0000      -0.910736       -24.7824
  17   2.0000      -0.824779       -22.4434
  18   2.0000      -0.674135       -18.3441
  19   2.0000      -0.644789       -17.5456
  20   2.0000      -0.611831       -16.6488
  21   2.0000      -0.578881       -15.7522
  22   2.0000      -0.541699       -14.7404
  23   2.0000      -0.520475       -14.1628
  24   2.0000      -0.507239       -13.8027
  25   2.0000      -0.452301       -12.3077
  26   2.0000      -0.442954       -12.0534
  27   2.0000      -0.436979       -11.8908
  28   2.0000      -0.429567       -11.6891
  29   0.0000       0.121432         3.3043
  30   0.0000       0.156627         4.2620
  31   0.0000       0.166985         4.5439
  32   0.0000       0.182760         4.9732
  33   0.0000       0.183446         4.9918

MULLIKEN ATOMIC CHARGES
-----------------------
   0 C :   -0.089571
   1 Cl:   -0.225989
   2 C :   -0.171597
   3 C :   -0.063687
   4 Cl:   -0.226688
   5 H :    0.126624
   6 H :    0.142621
   7 H :    0.123936
   8 H :    0.119284
   9 H :    0.121249
  10 H :    0.143818
Sum of atomic charges:   -0.0000000

LOEWDIN ATOMIC CHARGES
----------------------
   0 C :   -0.081430
   1 Cl:    0.159386
   2 C :    0.011560
   3 C :   -0.087193
   4 Cl:    0.164759
   5 H :   -0.034801
   6 H :   -0.031173
   7 H :   -0.015503
   8 H :   -0.013240
   9 H :   -0.035991
  10 H :   -0.036374

  Mayer bond orders larger than 0.1
B(  0-C ,  1-Cl) :   0.9462 B(  0-C ,  2-C ) :   0.9563 B(  0-C ,  5-H ) :   0.9739
B(  0-C ,  6-H ) :   0.9798 B(  2-C ,  3-C ) :   0.9575 B(  2-C ,  7-H ) :   0.9697
B(  2-C ,  8-H ) :   0.9697 B(  3-C ,  4-Cl) :   0.9527 B(  3-C ,  9-H ) :   0.9758
B(  3-C , 10-H ) :   0.9691

E(0)                                       ...  -1036.182813140
E(0)                                       ...  -1036.182813140
E(CORR)(strong-pairs)                      ...     -0.958669448
E(CORR)(weak-pairs)                        ...     -0.000601659
E(CORR)(corrected)                         ...     -0.959271107
E(TOT)                                     ...  -1037.142084247
E(CCSD(T))                                 ...  -1037.180635969
FINAL SINGLE POINT ENERGY     -1037.180635968798

DIPOLE MOMENT
-------------
                                X             Y             Z
Electronic contribution:      1.31788      -4.27451      -1.20711
Nuclear contribution   :     -1.68055       5.04667       1.55858
                        -----------------------------------------
Total Dipole Moment    :     -0.36266       0.77217       0.35147
                        -----------------------------------------
Magnitude (a.u.)       :      0.92266
Magnitude (Debye)      :      2.34521

Rotational constants in cm-1:     0.316062     0.034822     0.032703
Rotational constants in MHz :  9475.307371  1043.924084   980.411803

                             ****ORCA TERMINATED NORMALLY****
TOTAL RUN TIME: 0 days 0 hours 3 minutes 9 seconds 135 msec
