                         Program Version 4.1.x  -  STABLE  -
|  1> ! RHF DLPNO-CCSD(T) cc-pVTZ RIJK cc-pVTZ/JK cc-pVTZ/C
|  2> ! KDIIS SOSCF TightSCF TightPNO
|  3>
|  4> %pal nprocs 8 end
|  5>
|  6> %maxcore 8000
|  7>
|  8> %scf maxiter 300
|  9>      shift shift 0.2 erroff 0.1 end
| 10> end
| 11>
| 12> * xyzfile 0 1 1_3_dichloropropane_a_a.xyz
| 13>
| 14>
| 15>                          ****END OF INPUT****

CARTESIAN COORDINATES (ANGSTROEM)
---------------------------------
  C      1.252700   -0.691730    0.000000
  Cl     2.761460    0.319120    0.000000
  C      0.000000    0.181550    0.000000
  C     -1.252650   -0.691810    0.000000
  Cl    -2.761480    0.318920    0.000000
  H      1.308950   -1.323190    0.888940
  H      1.308950   -1.323190   -0.888940
  H     -0.000040    0.829170    0.882010
  H     -0.000040    0.829170   -0.882010
  H     -1.308860   -1.323300   -0.888920
  H     -1.308860   -1.323300    0.888920

 Total Charge           Charge          ....    0
 Multiplicity           Mult            ....    1
 Number of Electrons    NEL             ....   58
 Basis Dimension        Dim             ....  242

ORBITAL ENERGIES
----------------

  NO   OCC          E(Eh)            E(eV)
   0   2.0000    -104.828614     -2852.5316
   1   2.0000    -104.828613     -2852.5316
   2   2.0000     -11.310585      -307.7767
   3   2.0000     -11.310582      -307.7766
   4   2.0000     -11.259125      -306.3764
   5   2.0000     -10.553434      -287.1736
   6   2.0000     -10.553433      -287.1735
   7   2.0000      -8.020180      -218.2402
   8   2.0000      -8.020178      -218.2401
   9   2.0000      -8.018447      -218.1930
  10   2.0000      -8.018446      -218.1930
  11   2.0000      -8.018426      -218.1925
  12   2.0000      -8.018425      -218.1924
  13   2.0000      -1.157298       -31.4917
  14   2.0000      -1.125617       -30.6296
  15   2.0000      -1.030076       -28.0298
  16   2.0000      -0.900840       -24.5131
  17   2.0000      -0.836452       -22.7610
  18   2.0000      -0.689031       -18.7495
  19   2.0000      -0.616926       -16.7874
  20   2.0000      -0.615618       -16.7518
  21   2.0000      -0.593732       -16.1563
  22   2.0000      -0.532055       -14.4780
  23   2.0000      -0.526230       -14.3195
  24   2.0000      -0.514609       -14.0032
  25   2.0000      -0.452203       -12.3051
  26   2.0000      -0.443650       -12.0723
  27   2.0000      -0.438823       -11.9410
  28   2.0000      -0.430689       -11.7196
  29   0.0000       0.113153         3.0790
  30   0.0000       0.159824         4.3490
  31   0.0000       0.163536         4.4501
  32   0.0000       0.172170         4.6850
  33   0.0000       0.175439         4.7739

MULLIKEN ATOMIC CHARGES
-----------------------
   0 C :   -0.075766
   1 Cl:   -0.218168
   2 C :   -0.164232
   3 C :   -0.075770
   4 Cl:   -0.218163
   5 H :    0.125450
   6 H :    0.125450
   7 H :    0.125152
   8 H :    0.125152
   9 H :    0.125447
  10 H :    0.125447
Sum of atomic charges:   -0.0000000

LOEWDIN ATOMIC CHARGES
----------------------
   0 C :   -0.089235
   1 Cl:    0.171107
   2 C :    0.012241
   3 C :   -0.089245
   4 Cl:    0.171116
   5 H :   -0.035741
   6 H :   -0.035741
   7 H :   -0.016509
   8 H :   -0.016509
   9 H :   -0.035742
  10 H :   -0.035742

  Mayer bond orders larger than 0.1
B(  0-C ,  1-Cl) :   0.9612 B(  0-C ,  2-C ) :   0.9563 B(  0-C ,  5-H ) :   0.9742
B(  0-C ,  6-H ) :   0.9742 B(  2-C ,  3-C ) :   0.9563 B(  2-C ,  7-H ) :   0.9704
B(  2-C ,  8-H ) :   0.9704 B(  3-C ,  4-Cl) :   0.9612 B(  3-C ,  9-H ) :   0.9742
B(  3-C , 10-H ) :   0.9742

E(0)                                       ...  -1036.182084520
E(0)                                       ...  -1036.182084520
E(CORR)(strong-pairs)                      ...     -0.958379305
E(CORR)(weak-pairs)                        ...     -0.000631512
E(CORR)(corrected)                         ...     -0.959010817
E(TOT)                                     ...  -1037.141095337
E(CCSD(T))                                 ...  -1037.179571968
FINAL SINGLE POINT ENERGY     -1037.179571968107

DIPOLE MOMENT
-------------
                                X             Y             Z
Electronic contribution:     -0.00010       3.53052      -0.00000
Nuclear contribution   :      0.00012      -4.38410       0.00000
                        -----------------------------------------
Total Dipole Moment    :      0.00002      -0.85358      -0.00000
                        -----------------------------------------
Magnitude (a.u.)       :      0.85358
Magnitude (Debye)      :      2.16963

Rotational constants in cm-1:     0.524711     0.028569     0.027514
Rotational constants in MHz : 15730.441128   856.478987   824.860097

                             ****ORCA TERMINATED NORMALLY****
TOTAL RUN TIME: 0 days 0 hours 2 minutes 38 seconds 749 msec
