                         Program Version 4.1.x  -  STABLE  -
|  1> ! RHF DLPNO-CCSD(T) cc-pVTZ RIJK cc-pVTZ/JK cc-pVTZ/C
|  2> ! KDIIS SOSCF TightSCF TightPNO
|  3>
|  4> %pal nprocs 8 end
|  5>
|  6> %maxcore 8000
|  7>
|  8> %scf maxiter 300
|  9>      shift shift 0.2 erroff 0.1 end
| 10> end
| 11>
| 12> * xyzfile 0 1 1_3_butadiene_cis.xyz
| 13>
| 14>
| 15>                          ****END OF INPUT****

CARTESIAN COORDINATES (ANGSTROEM)
---------------------------------
  C     -1.550360   -0.504060   -0.000030
  C     -0.736220    0.563450    0.000030
  C      0.736220    0.563450   -0.000040
  C      1.550360   -0.504060    0.000020
  H     -1.194360    1.551510    0.000140
  H      1.194370    1.551510   -0.000120
  H     -1.176340   -1.524420   -0.000160
  H     -2.628950   -0.383380    0.000040
  H      1.176320   -1.524420    0.000160
  H      2.628950   -0.383410   -0.000030

 Total Charge           Charge          ....    0
 Multiplicity           Mult            ....    1
 Number of Electrons    NEL             ....   30
 Basis Dimension        Dim             ....  204

ORBITAL ENERGIES
----------------

  NO   OCC          E(Eh)            E(eV)
   0   2.0000     -11.239888      -305.8529
   1   2.0000     -11.239120      -305.8320
   2   2.0000     -11.229585      -305.5725
   3   2.0000     -11.229581      -305.5724
   4   2.0000      -1.085260       -29.5314
   5   2.0000      -0.991960       -26.9926
   6   2.0000      -0.844309       -22.9748
   7   2.0000      -0.726186       -19.7605
   8   2.0000      -0.667149       -18.1540
   9   2.0000      -0.611037       -16.6272
  10   2.0000      -0.582558       -15.8522
  11   2.0000      -0.515088       -14.0163
  12   2.0000      -0.498080       -13.5534
  13   2.0000      -0.439064       -11.9475
  14   2.0000      -0.322139        -8.7658
  15   0.0000       0.096828         2.6348
  16   0.0000       0.153174         4.1681
  17   0.0000       0.165385         4.5004
  18   0.0000       0.177977         4.8430
  19   0.0000       0.215423         5.8620

MULLIKEN ATOMIC CHARGES
-----------------------
   0 C :   -0.314065
   1 C :   -0.109295
   2 C :   -0.109296
   3 C :   -0.314063
   4 H :    0.148839
   5 H :    0.148836
   6 H :    0.130480
   7 H :    0.144044
   8 H :    0.130473
   9 H :    0.144048
Sum of atomic charges:   -0.0000000

LOEWDIN ATOMIC CHARGES
----------------------
   0 C :    0.101444
   1 C :    0.002878
   2 C :    0.002877
   3 C :    0.101442
   4 H :   -0.023821
   5 H :   -0.023820
   6 H :   -0.041843
   7 H :   -0.038658
   8 H :   -0.041840
   9 H :   -0.038661

  Mayer bond orders larger than 0.1
B(  0-C ,  1-C ) :   1.8315 B(  0-C ,  6-H ) :   0.9677 B(  0-C ,  7-H ) :   0.9761
B(  1-C ,  2-C ) :   0.9989 B(  1-C ,  4-H ) :   0.9732 B(  2-C ,  3-C ) :   1.8315
B(  2-C ,  5-H ) :   0.9732 B(  3-C ,  8-H ) :   0.9677 B(  3-C ,  9-H ) :   0.9761

E(0)                                       ...   -154.969775798
E(0)                                       ...   -154.969775798
E(CORR)(strong-pairs)                      ...     -0.687735899
E(CORR)(weak-pairs)                        ...     -0.000399440
E(CORR)(corrected)                         ...     -0.688135339
E(TOT)                                     ...   -155.657911137
E(CCSD(T))                                 ...   -155.688836372
FINAL SINGLE POINT ENERGY      -155.688836371975

DIPOLE MOMENT
-------------
                                X             Y             Z
Electronic contribution:      0.00001       0.75784      -0.00003
Nuclear contribution   :     -0.00001      -0.74227       0.00005
                        -----------------------------------------
Total Dipole Moment    :      0.00000       0.01557       0.00002
                        -----------------------------------------
Magnitude (a.u.)       :      0.01557
Magnitude (Debye)      :      0.03958

Rotational constants in cm-1:     0.715682     0.186563     0.147986
Rotational constants in MHz : 21455.598987  5593.024372  4436.517406

                             ****ORCA TERMINATED NORMALLY****
TOTAL RUN TIME: 0 days 0 hours 3 minutes 21 seconds 433 msec
