                         Program Version 4.1.x  -  STABLE  -
|  1> ! RHF DLPNO-CCSD(T) cc-pVTZ RIJK cc-pVTZ/JK cc-pVTZ/C
|  2> ! KDIIS SOSCF TightSCF TightPNO
|  3>
|  4> %pal nprocs 8 end
|  5>
|  6> %maxcore 8000
|  7>
|  8> %scf maxiter 300
|  9>      shift shift 0.2 erroff 0.1 end
| 10> end
| 11>
| 12> * xyzfile 0 1 1_3_butadiene_t.xyz
| 13>
| 14>
| 15>                          ****END OF INPUT****

CARTESIAN COORDINATES (ANGSTROEM)
---------------------------------
  C      1.109260   -1.486760    0.000000
  C     -0.000010   -0.729210    0.000000
  C      0.000000    0.729200    0.000000
  C     -1.109260    1.486770    0.000000
  H      1.057990   -2.570700    0.000000
  H      2.100990   -1.040500    0.000000
  H     -0.977150   -1.212820    0.000000
  H      0.977130    1.212820    0.000000
  H     -1.057960    2.570710    0.000000
  H     -2.100990    1.040530    0.000000

 Total Charge           Charge          ....    0
 Multiplicity           Mult            ....    1
 Number of Electrons    NEL             ....   30
 Basis Dimension        Dim             ....  204

ORBITAL ENERGIES
----------------

  NO   OCC          E(Eh)            E(eV)
   0   2.0000     -11.240839      -305.8788
   1   2.0000     -11.240011      -305.8562
   2   2.0000     -11.230320      -305.5925
   3   2.0000     -11.230314      -305.5924
   4   2.0000      -1.089162       -29.6376
   5   2.0000      -0.997826       -27.1522
   6   2.0000      -0.826645       -22.4942
   7   2.0000      -0.752684       -20.4816
   8   2.0000      -0.642922       -17.4948
   9   2.0000      -0.633217       -17.2307
  10   2.0000      -0.556990       -15.1565
  11   2.0000      -0.543557       -14.7909
  12   2.0000      -0.493196       -13.4205
  13   2.0000      -0.442647       -12.0450
  14   2.0000      -0.322576        -8.7777
  15   0.0000       0.109262         2.9732
  16   0.0000       0.158645         4.3169
  17   0.0000       0.163816         4.4577
  18   0.0000       0.170881         4.6499
  19   0.0000       0.213592         5.8121

MULLIKEN ATOMIC CHARGES
-----------------------
   0 C :   -0.335584
   1 C :   -0.087874
   2 C :   -0.087877
   3 C :   -0.335587
   4 H :    0.140887
   5 H :    0.134218
   6 H :    0.148356
   7 H :    0.148356
   8 H :    0.140886
   9 H :    0.134221
Sum of atomic charges:   -0.0000000

LOEWDIN ATOMIC CHARGES
----------------------
   0 C :    0.093205
   1 C :    0.007351
   2 C :    0.007352
   3 C :    0.093207
   4 H :   -0.039588
   5 H :   -0.040152
   6 H :   -0.020814
   7 H :   -0.020817
   8 H :   -0.039587
   9 H :   -0.040158

  Mayer bond orders larger than 0.1
B(  0-C ,  1-C ) :   1.8168 B(  0-C ,  4-H ) :   0.9783 B(  0-C ,  5-H ) :   0.9696
B(  1-C ,  2-C ) :   1.0160 B(  1-C ,  6-H ) :   0.9584 B(  2-C ,  3-C ) :   1.8168
B(  2-C ,  7-H ) :   0.9584 B(  3-C ,  8-H ) :   0.9783 B(  3-C ,  9-H ) :   0.9696

E(0)                                       ...   -154.976619927
E(0)                                       ...   -154.976619927
E(CORR)(strong-pairs)                      ...     -0.686598905
E(CORR)(weak-pairs)                        ...     -0.000396367
E(CORR)(corrected)                         ...     -0.686995272
E(TOT)                                     ...   -155.663615199
E(CCSD(T))                                 ...   -155.694456532
FINAL SINGLE POINT ENERGY      -155.694456532344

DIPOLE MOMENT
-------------
                                X             Y             Z
Electronic contribution:     -0.00002      -0.00004       0.00000
Nuclear contribution   :      0.00002       0.00003       0.00000
                        -----------------------------------------
Total Dipole Moment    :      0.00000      -0.00001       0.00000
                        -----------------------------------------
Magnitude (a.u.)       :      0.00001
Magnitude (Debye)      :      0.00002

Rotational constants in cm-1:     1.408927     0.146566     0.132756
Rotational constants in MHz : 42238.578900  4393.925754  3979.910172

                             ****ORCA TERMINATED NORMALLY****
TOTAL RUN TIME: 0 days 0 hours 2 minutes 39 seconds 101 msec
