                         Program Version 4.1.x  -  STABLE  -
|  1> ! RHF DLPNO-CCSD(T) cc-pVTZ RIJK cc-pVTZ/JK cc-pVTZ/C
|  2> ! KDIIS SOSCF TightSCF TightPNO
|  3>
|  4> %pal nprocs 8 end
|  5>
|  6> %maxcore 8000
|  7>
|  8> %scf maxiter 300
|  9>      shift shift 0.2 erroff 0.1 end
| 10> end
| 11>
| 12> * xyzfile 0 1 1_3_dichloropropane_g_plus_g_plus.xyz
| 13>
| 14>
| 15>                          ****END OF INPUT****

CARTESIAN COORDINATES (ANGSTROEM)
---------------------------------
  C     -0.983900    0.438280    0.831410
  Cl    -2.121100   -0.535290   -0.209370
  C      0.000010    1.250950    0.000150
  C      0.984030    0.438620   -0.831310
  Cl     2.121030   -0.535410    0.209240
  H     -0.474030   -0.276500    1.478150
  H     -1.615040    1.090210    1.435960
  H     -0.554550    1.903190   -0.686620
  H      0.554490    1.903080    0.687080
  H      0.474240   -0.275890   -1.478420
  H      1.615260    1.090780   -1.435520

 Total Charge           Charge          ....    0
 Multiplicity           Mult            ....    1
 Number of Electrons    NEL             ....   58
 Basis Dimension        Dim             ....  242

ORBITAL ENERGIES
----------------

  NO   OCC          E(Eh)            E(eV)
   0   2.0000    -104.824645     -2852.4236
   1   2.0000    -104.824642     -2852.4235
   2   2.0000     -11.304568      -307.6129
   3   2.0000     -11.304560      -307.6127
   4   2.0000     -11.261801      -306.4492
   5   2.0000     -10.549579      -287.0686
   6   2.0000     -10.549576      -287.0685
   7   2.0000      -8.016301      -218.1346
   8   2.0000      -8.016297      -218.1345
   9   2.0000      -8.014647      -218.0896
  10   2.0000      -8.014643      -218.0895
  11   2.0000      -8.014609      -218.0886
  12   2.0000      -8.014606      -218.0885
  13   2.0000      -1.155926       -31.4543
  14   2.0000      -1.116879       -30.3918
  15   2.0000      -1.025695       -27.9106
  16   2.0000      -0.917482       -24.9660
  17   2.0000      -0.812968       -22.1220
  18   2.0000      -0.668183       -18.1822
  19   2.0000      -0.660896       -17.9839
  20   2.0000      -0.596862       -16.2414
  21   2.0000      -0.568859       -15.4794
  22   2.0000      -0.558467       -15.1966
  23   2.0000      -0.518609       -14.1121
  24   2.0000      -0.499973       -13.6050
  25   2.0000      -0.445564       -12.1244
  26   2.0000      -0.441819       -12.0225
  27   2.0000      -0.433991       -11.8095
  28   2.0000      -0.433362       -11.7924
  29   0.0000       0.130640         3.5549
  30   0.0000       0.150014         4.0821
  31   0.0000       0.177119         4.8196
  32   0.0000       0.180903         4.9226
  33   0.0000       0.184828         5.0294

MULLIKEN ATOMIC CHARGES
-----------------------
   0 C :   -0.074585
   1 Cl:   -0.232973
   2 C :   -0.182721
   3 C :   -0.074586
   4 Cl:   -0.232968
   5 H :    0.141572
   6 H :    0.139439
   7 H :    0.117909
   8 H :    0.117909
   9 H :    0.141566
  10 H :    0.139439
Sum of atomic charges:    0.0000000

LOEWDIN ATOMIC CHARGES
----------------------
   0 C :   -0.080382
   1 Cl:    0.156542
   2 C :    0.011924
   3 C :   -0.080390
   4 Cl:    0.156561
   5 H :   -0.035895
   6 H :   -0.033241
   7 H :   -0.012994
   8 H :   -0.012998
   9 H :   -0.035887
  10 H :   -0.033240

  Mayer bond orders larger than 0.1
B(  0-C ,  1-Cl) :   0.9400 B(  0-C ,  2-C ) :   0.9607 B(  0-C ,  5-H ) :   0.9680
B(  0-C ,  6-H ) :   0.9802 B(  2-C ,  3-C ) :   0.9607 B(  2-C ,  7-H ) :   0.9687
B(  2-C ,  8-H ) :   0.9687 B(  3-C ,  4-Cl) :   0.9400 B(  3-C ,  9-H ) :   0.9680
B(  3-C , 10-H ) :   0.9802

E(0)                                       ...  -1036.183559840
E(0)                                       ...  -1036.183559840
E(CORR)(strong-pairs)                      ...     -0.959130742
E(CORR)(weak-pairs)                        ...     -0.000608103
E(CORR)(corrected)                         ...     -0.959738845
E(TOT)                                     ...  -1037.143298684
E(CCSD(T))                                 ...  -1037.181955812
FINAL SINGLE POINT ENERGY     -1037.181955811892

DIPOLE MOMENT
-------------
                                X             Y             Z
Electronic contribution:     -0.00034      -5.71568      -0.00067
Nuclear contribution   :      0.00045       6.71641       0.00079
                        -----------------------------------------
Total Dipole Moment    :      0.00011       1.00072       0.00012
                        -----------------------------------------
Magnitude (a.u.)       :      1.00072
Magnitude (Debye)      :      2.54364

Rotational constants in cm-1:     0.204948     0.044619     0.041946
Rotational constants in MHz :  6144.195251  1337.648226  1257.516914

                             ****ORCA TERMINATED NORMALLY****
TOTAL RUN TIME: 0 days 0 hours 2 minutes 55 seconds 389 msec
