                         Program Version 4.1.x  -  STABLE  -
|  1> ! RHF DLPNO-CCSD(T) cc-pVTZ RIJK cc-pVTZ/JK cc-pVTZ/C
|  2> ! KDIIS SOSCF TightSCF TightPNO
|  3>
|  4> %pal nprocs 8 end
|  5>
|  6> %maxcore 8000
|  7>
|  8> %scf maxiter 300
|  9>      shift shift 0.2 erroff 0.1 end
| 10> end
| 11>
| 12> * xyzfile 0 1 1_4_diF_cyclohexane_dieq.xyz
| 13>
| 14>
| 15>                          ****END OF INPUT****

CARTESIAN COORDINATES (ANGSTROEM)
---------------------------------
  C      0.749630    1.266030    0.175760
  C     -0.749680    1.265990   -0.175750
  C     -1.424650    0.000000    0.341630
  C     -0.749620   -1.266010   -0.175750
  C      0.749670   -1.265980    0.175770
  C      1.424640   -0.000010   -0.341640
  F     -2.776580   -0.000030   -0.071560
  F      2.776580    0.000010    0.071540
  H     -1.242210   -2.148890    0.243560
  H     -0.885930   -1.307690   -1.264260
  H     -1.447660   -0.000010    1.439440
  H     -0.886000    1.307760   -1.264250
  H     -1.242260    2.148860    0.243630
  H      0.886010   -1.307700    1.264280
  H      1.242280   -2.148870   -0.243560
  H      1.447630   -0.000020   -1.439450
  H      0.885960    1.307690    1.264270
  H      1.242220    2.148890   -0.243580

 Total Charge           Charge          ....    0
 Multiplicity           Mult            ....    1
 Number of Electrons    NEL             ....   64
 Basis Dimension        Dim             ....  380

ORBITAL ENERGIES
----------------

  NO   OCC          E(Eh)            E(eV)
   0   2.0000     -26.268568      -714.8041
   1   2.0000     -26.268566      -714.8040
   2   2.0000     -11.316803      -307.9459
   3   2.0000     -11.316799      -307.9458
   4   2.0000     -11.241304      -305.8914
   5   2.0000     -11.241286      -305.8910
   6   2.0000     -11.240715      -305.8754
   7   2.0000     -11.240703      -305.8751
   8   2.0000      -1.574831       -42.8533
   9   2.0000      -1.574629       -42.8478
  10   2.0000      -1.136615       -30.9289
  11   2.0000      -1.030657       -28.0456
  12   2.0000      -1.013018       -27.5656
  13   2.0000      -0.869541       -23.6614
  14   2.0000      -0.848675       -23.0936
  15   2.0000      -0.794491       -21.6192
  16   2.0000      -0.702962       -19.1286
  17   2.0000      -0.692580       -18.8461
  18   2.0000      -0.688706       -18.7406
  19   2.0000      -0.670874       -18.2554
  20   2.0000      -0.651350       -17.7241
  21   2.0000      -0.643662       -17.5149
  22   2.0000      -0.605743       -16.4831
  23   2.0000      -0.586502       -15.9595
  24   2.0000      -0.582892       -15.8613
  25   2.0000      -0.553322       -15.0567
  26   2.0000      -0.521202       -14.1826
  27   2.0000      -0.510140       -13.8816
  28   2.0000      -0.502839       -13.6829
  29   2.0000      -0.497778       -13.5452
  30   2.0000      -0.470705       -12.8085
  31   2.0000      -0.452519       -12.3137
  32   0.0000       0.133904         3.6437
  33   0.0000       0.138588         3.7712
  34   0.0000       0.155211         4.2235
  35   0.0000       0.176781         4.8104
  36   0.0000       0.196534         5.3480

MULLIKEN ATOMIC CHARGES
-----------------------
   0 C :   -0.232421
   1 C :   -0.232411
   2 C :    0.251094
   3 C :   -0.232418
   4 C :   -0.232403
   5 C :    0.251089
   6 F :   -0.323712
   7 F :   -0.323717
   8 H :    0.124247
   9 H :    0.101830
  10 H :    0.085299
  11 H :    0.101841
  12 H :    0.124233
  13 H :    0.101834
  14 H :    0.124232
  15 H :    0.085302
  16 H :    0.101831
  17 H :    0.124250
Sum of atomic charges:   -0.0000000

LOEWDIN ATOMIC CHARGES
----------------------
   0 C :    0.064218
   1 C :    0.064188
   2 C :   -0.111052
   3 C :    0.064204
   4 C :    0.064177
   5 C :   -0.111042
   6 F :    0.084184
   7 F :    0.084174
   8 H :   -0.018154
   9 H :   -0.019007
  10 H :   -0.027211
  11 H :   -0.019008
  12 H :   -0.018146
  13 H :   -0.019003
  14 H :   -0.018139
  15 H :   -0.027213
  16 H :   -0.019009
  17 H :   -0.018160

  Mayer bond orders larger than 0.1
B(  0-C ,  1-C ) :   0.9185 B(  0-C ,  5-C ) :   0.9634 B(  0-C , 16-H ) :   0.9782
B(  0-C , 17-H ) :   0.9860 B(  1-C ,  2-C ) :   0.9634 B(  1-C , 11-H ) :   0.9782
B(  1-C , 12-H ) :   0.9860 B(  2-C ,  3-C ) :   0.9634 B(  2-C ,  6-F ) :   0.9349
B(  2-C , 10-H ) :   0.9839 B(  3-C ,  4-C ) :   0.9185 B(  3-C ,  8-H ) :   0.9860
B(  3-C ,  9-H ) :   0.9782 B(  4-C ,  5-C ) :   0.9634 B(  4-C , 13-H ) :   0.9782
B(  4-C , 14-H ) :   0.9860 B(  5-C ,  7-F ) :   0.9349 B(  5-C , 15-H ) :   0.9839

E(0)                                       ...   -432.074636601
E(0)                                       ...   -432.074636601
E(CORR)(strong-pairs)                      ...     -1.569752746
E(CORR)(weak-pairs)                        ...     -0.001614398
E(CORR)(corrected)                         ...     -1.571367144
E(TOT)                                     ...   -433.646003745
E(CCSD(T))                                 ...   -433.703569806
FINAL SINGLE POINT ENERGY      -433.703569806326

DIPOLE MOMENT
-------------
                                X             Y             Z
Electronic contribution:     -0.00006      -0.00004      -0.00009
Nuclear contribution   :      0.00004       0.00004       0.00010
                        -----------------------------------------
Total Dipole Moment    :     -0.00001       0.00001       0.00000
                        -----------------------------------------
Magnitude (a.u.)       :      0.00001
Magnitude (Debye)      :      0.00004

Rotational constants in cm-1:     0.143036     0.042395     0.034771
Rotational constants in MHz :  4288.125067  1270.959017  1042.418907

                             ****ORCA TERMINATED NORMALLY****
TOTAL RUN TIME: 0 days 0 hours 12 minutes 27 seconds 444 msec
