                         Program Version 4.1.x  -  STABLE  -
|  1> ! RHF DLPNO-CCSD(T) cc-pVTZ RIJK cc-pVTZ/JK cc-pVTZ/C
|  2> ! KDIIS SOSCF TightSCF TightPNO
|  3>
|  4> %pal nprocs 8 end
|  5>
|  6> %maxcore 8000
|  7>
|  8> %scf maxiter 300
|  9>      shift shift 0.2 erroff 0.1 end
| 10> end
| 11>
| 12> * xyzfile 0 1 1_4_diCl_cyclohexane_diax.xyz
| 13>
| 14>
| 15>                          ****END OF INPUT****

CARTESIAN COORDINATES (ANGSTROEM)
---------------------------------
  C     -0.388430    1.269700   -0.661840
  C      0.388430    1.269710    0.661930
  C      1.218020    0.000010    0.865320
  C      0.388440   -1.269690    0.661940
  C     -0.388390   -1.269710   -0.661830
  C     -1.217960   -0.000020   -0.865280
  Cl     2.666360    0.000000   -0.288240
  Cl    -2.666420   -0.000010    0.288120
  H     -0.319550   -1.324050    1.499420
  H      1.029880   -2.153670    0.725160
  H      1.684200    0.000010    1.851970
  H      1.029860    2.153690    0.725130
  H     -0.319580    1.324050    1.499400
  H     -1.029820   -2.153690   -0.725020
  H      0.319630   -1.324080   -1.499280
  H     -1.684060   -0.000020   -1.851970
  H     -1.029890    2.153660   -0.725020
  H      0.319580    1.324120   -1.499300

 Total Charge           Charge          ....    0
 Multiplicity           Mult            ....    1
 Number of Electrons    NEL             ....   80
 Basis Dimension        Dim             ....  388

ORBITAL ENERGIES
----------------

  NO   OCC          E(Eh)            E(eV)
   0   2.0000    -104.815839     -2852.1840
   1   2.0000    -104.815837     -2852.1839
   2   2.0000     -11.306965      -307.6782
   3   2.0000     -11.306960      -307.6780
   4   2.0000     -11.244191      -305.9700
   5   2.0000     -11.244173      -305.9695
   6   2.0000     -11.243588      -305.9536
   7   2.0000     -11.243578      -305.9533
   8   2.0000     -10.540970      -286.8344
   9   2.0000     -10.540969      -286.8343
  10   2.0000      -8.007601      -217.8979
  11   2.0000      -8.007599      -217.8979
  12   2.0000      -8.006077      -217.8564
  13   2.0000      -8.006076      -217.8564
  14   2.0000      -8.006058      -217.8559
  15   2.0000      -8.006057      -217.8559
  16   2.0000      -1.172299       -31.8999
  17   2.0000      -1.122780       -30.5524
  18   2.0000      -1.049710       -28.5641
  19   2.0000      -1.030876       -28.0516
  20   2.0000      -0.983466       -26.7615
  21   2.0000      -0.864804       -23.5325
  22   2.0000      -0.834278       -22.7019
  23   2.0000      -0.736453       -20.0399
  24   2.0000      -0.688636       -18.7387
  25   2.0000      -0.646872       -17.6023
  26   2.0000      -0.631728       -17.1902
  27   2.0000      -0.593777       -16.1575
  28   2.0000      -0.580743       -15.8028
  29   2.0000      -0.571739       -15.5578
  30   2.0000      -0.551279       -15.0011
  31   2.0000      -0.512735       -13.9522
  32   2.0000      -0.498808       -13.5732
  33   2.0000      -0.486357       -13.2345
  34   2.0000      -0.479270       -13.0416
  35   2.0000      -0.468169       -12.7395
  36   2.0000      -0.434995       -11.8368
  37   2.0000      -0.431080       -11.7303
  38   2.0000      -0.426890       -11.6163
  39   2.0000      -0.425566       -11.5802
  40   0.0000       0.129445         3.5224
  41   0.0000       0.143304         3.8995
  42   0.0000       0.162638         4.4256
  43   0.0000       0.169203         4.6043
  44   0.0000       0.179629         4.8880

MULLIKEN ATOMIC CHARGES
-----------------------
   0 C :   -0.192347
   1 C :   -0.192341
   2 C :   -0.023534
   3 C :   -0.192340
   4 C :   -0.192344
   5 C :   -0.023531
   6 Cl:   -0.256827
   7 Cl:   -0.256827
   8 H :    0.123782
   9 H :    0.130530
  10 H :    0.156414
  11 H :    0.130534
  12 H :    0.123778
  13 H :    0.130534
  14 H :    0.123786
  15 H :    0.156413
  16 H :    0.130534
  17 H :    0.123784
Sum of atomic charges:   -0.0000000

LOEWDIN ATOMIC CHARGES
----------------------
   0 C :    0.046619
   1 C :    0.046625
   2 C :   -0.132863
   3 C :    0.046617
   4 C :    0.046618
   5 C :   -0.132871
   6 Cl:    0.139274
   7 Cl:    0.139273
   8 H :   -0.016406
   9 H :   -0.018353
  10 H :   -0.030121
  11 H :   -0.018359
  12 H :   -0.016406
  13 H :   -0.018356
  14 H :   -0.016407
  15 H :   -0.030118
  16 H :   -0.018358
  17 H :   -0.016408

  Mayer bond orders larger than 0.1
B(  0-C ,  1-C ) :   0.9459 B(  0-C ,  5-C ) :   0.9466 B(  0-C , 16-H ) :   0.9847
B(  0-C , 17-H ) :   0.9717 B(  1-C ,  2-C ) :   0.9466 B(  1-C , 11-H ) :   0.9847
B(  1-C , 12-H ) :   0.9717 B(  2-C ,  3-C ) :   0.9466 B(  2-C ,  6-Cl) :   0.9323
B(  2-C , 10-H ) :   0.9915 B(  3-C ,  4-C ) :   0.9459 B(  3-C ,  8-H ) :   0.9717
B(  3-C ,  9-H ) :   0.9847 B(  4-C ,  5-C ) :   0.9466 B(  4-C , 13-H ) :   0.9847
B(  4-C , 14-H ) :   0.9717 B(  5-C ,  7-Cl) :   0.9323 B(  5-C , 15-H ) :   0.9915

E(0)                                       ...  -1152.167033222
E(0)                                       ...  -1152.167033222
E(CORR)(strong-pairs)                      ...     -1.480229422
E(CORR)(weak-pairs)                        ...     -0.001490239
E(CORR)(corrected)                         ...     -1.481719661
E(TOT)                                     ...  -1153.648752882
E(CCSD(T))                                 ...  -1153.711594080
FINAL SINGLE POINT ENERGY     -1153.711594079690

DIPOLE MOMENT
-------------
                                X             Y             Z
Electronic contribution:     -0.00027      -0.00005      -0.00059
Nuclear contribution   :      0.00034       0.00005       0.00066
                        -----------------------------------------
Total Dipole Moment    :      0.00007       0.00000       0.00007
                        -----------------------------------------
Magnitude (a.u.)       :      0.00010
Magnitude (Debye)      :      0.00025

Rotational constants in cm-1:     0.101512     0.027171     0.025510
Rotational constants in MHz :  3043.265075   814.565713   764.785521

                             ****ORCA TERMINATED NORMALLY****
TOTAL RUN TIME: 0 days 0 hours 15 minutes 3 seconds 829 msec
