                         Program Version 4.1.x  -  STABLE  -
|  1> ! RHF DLPNO-CCSD(T) cc-pVTZ RIJK cc-pVTZ/JK cc-pVTZ/C
|  2> ! KDIIS SOSCF TightSCF TightPNO
|  3>
|  4> %pal nprocs 8 end
|  5>
|  6> %maxcore 8000
|  7>
|  8> %scf maxiter 300
|  9>      shift shift 0.2 erroff 0.1 end
| 10> end
| 11>
| 12> * xyzfile 0 1 1_4_diF_cyclohexane_diax.xyz
| 13>
| 14>
| 15>                          ****END OF INPUT****

CARTESIAN COORDINATES (ANGSTROEM)
---------------------------------
  C     -0.527550    1.270800   -0.559430
  C      0.527590    1.270790    0.559460
  C      1.370140   -0.000010    0.555750
  C      0.527580   -1.270780    0.559460
  C     -0.527570   -1.270790   -0.559420
  C     -1.370130   -0.000010   -0.555760
  F      2.170140   -0.000010   -0.624880
  F     -2.170190    0.000020    0.624830
  H      1.185290   -2.141220    0.464810
  H      0.033000   -1.343420    1.535680
  H      2.081950   -0.000010    1.388440
  H      0.033030    1.343430    1.535690
  H      1.185330    2.141200    0.464770
  H     -0.033020   -1.343470   -1.535650
  H     -1.185310   -2.141210   -0.464730
  H     -2.081920   -0.000030   -1.388460
  H     -0.032970    1.343460   -1.535650
  H     -1.185280    2.141220   -0.464750

 Total Charge           Charge          ....    0
 Multiplicity           Mult            ....    1
 Number of Electrons    NEL             ....   64
 Basis Dimension        Dim             ....  380

ORBITAL ENERGIES
----------------

  NO   OCC          E(Eh)            E(eV)
   0   2.0000     -26.262817      -714.6476
   1   2.0000     -26.262815      -714.6475
   2   2.0000     -11.312168      -307.8197
   3   2.0000     -11.312163      -307.8196
   4   2.0000     -11.234057      -305.6942
   5   2.0000     -11.234039      -305.6937
   6   2.0000     -11.233463      -305.6781
   7   2.0000     -11.233454      -305.6778
   8   2.0000      -1.567928       -42.6655
   9   2.0000      -1.567136       -42.6439
  10   2.0000      -1.124218       -30.5915
  11   2.0000      -1.024789       -27.8859
  12   2.0000      -1.015611       -27.6362
  13   2.0000      -0.863620       -23.5003
  14   2.0000      -0.850390       -23.1403
  15   2.0000      -0.765481       -20.8298
  16   2.0000      -0.709676       -19.3113
  17   2.0000      -0.690688       -18.7946
  18   2.0000      -0.672591       -18.3021
  19   2.0000      -0.670034       -18.2326
  20   2.0000      -0.657733       -17.8978
  21   2.0000      -0.616435       -16.7740
  22   2.0000      -0.594819       -16.1858
  23   2.0000      -0.590708       -16.0740
  24   2.0000      -0.568826       -15.4785
  25   2.0000      -0.542539       -14.7632
  26   2.0000      -0.529132       -14.3984
  27   2.0000      -0.518266       -14.1027
  28   2.0000      -0.506163       -13.7734
  29   2.0000      -0.490443       -13.3456
  30   2.0000      -0.449660       -12.2359
  31   2.0000      -0.449097       -12.2206
  32   0.0000       0.136297         3.7088
  33   0.0000       0.149678         4.0729
  34   0.0000       0.168808         4.5935
  35   0.0000       0.185383         5.0445
  36   0.0000       0.193115         5.2549

MULLIKEN ATOMIC CHARGES
-----------------------
   0 C :   -0.209367
   1 C :   -0.209363
   2 C :    0.212792
   3 C :   -0.209365
   4 C :   -0.209362
   5 C :    0.212785
   6 F :   -0.352043
   7 F :   -0.352044
   8 H :    0.116888
   9 H :    0.107411
  10 H :    0.109384
  11 H :    0.107412
  12 H :    0.116888
  13 H :    0.107414
  14 H :    0.116883
  15 H :    0.109388
  16 H :    0.107411
  17 H :    0.116888
Sum of atomic charges:   -0.0000000

LOEWDIN ATOMIC CHARGES
----------------------
   0 C :    0.062578
   1 C :    0.062573
   2 C :   -0.096491
   3 C :    0.062568
   4 C :    0.062568
   5 C :   -0.096479
   6 F :    0.063031
   7 F :    0.063027
   8 H :   -0.018591
   9 H :   -0.014520
  10 H :   -0.025455
  11 H :   -0.014523
  12 H :   -0.018593
  13 H :   -0.014523
  14 H :   -0.018589
  15 H :   -0.025460
  16 H :   -0.014525
  17 H :   -0.018596

  Mayer bond orders larger than 0.1
B(  0-C ,  1-C ) :   0.9429 B(  0-C ,  5-C ) :   0.9671 B(  0-C , 16-H ) :   0.9722
B(  0-C , 17-H ) :   0.9890 B(  1-C ,  2-C ) :   0.9671 B(  1-C , 11-H ) :   0.9722
B(  1-C , 12-H ) :   0.9890 B(  2-C ,  3-C ) :   0.9671 B(  2-C ,  6-F ) :   0.8995
B(  2-C , 10-H ) :   1.0054 B(  3-C ,  4-C ) :   0.9429 B(  3-C ,  8-H ) :   0.9890
B(  3-C ,  9-H ) :   0.9722 B(  4-C ,  5-C ) :   0.9671 B(  4-C , 13-H ) :   0.9722
B(  4-C , 14-H ) :   0.9890 B(  5-C ,  7-F ) :   0.8995 B(  5-C , 15-H ) :   1.0054

E(0)                                       ...   -432.075739934
E(0)                                       ...   -432.075739934
E(CORR)(strong-pairs)                      ...     -1.570184123
E(CORR)(weak-pairs)                        ...     -0.001623317
E(CORR)(corrected)                         ...     -1.571807440
E(TOT)                                     ...   -433.647547375
E(CCSD(T))                                 ...   -433.705160977
FINAL SINGLE POINT ENERGY      -433.705160976908

DIPOLE MOMENT
-------------
                                X             Y             Z
Electronic contribution:     -0.00011       0.00004      -0.00017
Nuclear contribution   :      0.00015      -0.00006       0.00019
                        -----------------------------------------
Total Dipole Moment    :      0.00004      -0.00003       0.00003
                        -----------------------------------------
Magnitude (a.u.)       :      0.00006
Magnitude (Debye)      :      0.00014

Rotational constants in cm-1:     0.109234     0.055566     0.047386
Rotational constants in MHz :  3274.745618  1665.833658  1420.594062

                             ****ORCA TERMINATED NORMALLY****
TOTAL RUN TIME: 0 days 0 hours 12 minutes 37 seconds 616 msec
