                         Program Version 4.1.x  -  STABLE  -
|  1> ! RHF DLPNO-CCSD(T) cc-pVTZ RIJK cc-pVTZ/JK cc-pVTZ/C
|  2> ! KDIIS SOSCF TightSCF TightPNO
|  3>
|  4> %pal nprocs 8 end
|  5>
|  6> %maxcore 8000
|  7>
|  8> %scf maxiter 300
|  9>      shift shift 0.2 erroff 0.1 end
| 10> end
| 11>
| 12> * xyzfile 0 1 1_4_diCl_cyclohexane_dieq.xyz
| 13>
| 14>
| 15>                          ****END OF INPUT****

CARTESIAN COORDINATES (ANGSTROEM)
---------------------------------
  C     -0.753930    1.266770   -0.162280
  C      0.753920    1.266800    0.162340
  C      1.418360    0.000010   -0.376970
  C      0.753920   -1.266780    0.162340
  C     -0.753920   -1.266790   -0.162280
  C     -1.418360    0.000010    0.376970
  Cl     3.202120   -0.000000    0.040160
  Cl    -3.202110   -0.000010   -0.040220
  H      0.906630   -1.314510    1.247650
  H      1.228310   -2.154390   -0.266990
  H      1.396980   -0.000010   -1.470620
  H      1.228280    2.154410   -0.267000
  H      0.906610    1.314530    1.247650
  H     -1.228300   -2.154410    0.267020
  H     -0.906630   -1.314520   -1.247610
  H     -1.397060    0.000020    1.470650
  H     -1.228330    2.154380    0.267030
  H     -0.906650    1.314540   -1.247600

 Total Charge           Charge          ....    0
 Multiplicity           Mult            ....    1
 Number of Electrons    NEL             ....   80
 Basis Dimension        Dim             ....  388

ORBITAL ENERGIES
----------------

  NO   OCC          E(Eh)            E(eV)
   0   2.0000    -104.820119     -2852.3005
   1   2.0000    -104.820118     -2852.3004
   2   2.0000     -11.308407      -307.7174
   3   2.0000     -11.308403      -307.7173
   4   2.0000     -11.249886      -306.1250
   5   2.0000     -11.249868      -306.1245
   6   2.0000     -11.249302      -306.1091
   7   2.0000     -11.249290      -306.1087
   8   2.0000     -10.545126      -286.9475
   9   2.0000     -10.545125      -286.9474
  10   2.0000      -8.011794      -218.0120
  11   2.0000      -8.011792      -218.0119
  12   2.0000      -8.010184      -217.9682
  13   2.0000      -8.010183      -217.9682
  14   2.0000      -8.010173      -217.9679
  15   2.0000      -8.010172      -217.9679
  16   2.0000      -1.176442       -32.0126
  17   2.0000      -1.132237       -30.8097
  18   2.0000      -1.063123       -28.9290
  19   2.0000      -1.035095       -28.1664
  20   2.0000      -0.970135       -26.3987
  21   2.0000      -0.868646       -23.6371
  22   2.0000      -0.826651       -22.4943
  23   2.0000      -0.787424       -21.4269
  24   2.0000      -0.673022       -18.3139
  25   2.0000      -0.631618       -17.1872
  26   2.0000      -0.626014       -17.0347
  27   2.0000      -0.625482       -17.0202
  28   2.0000      -0.578752       -15.7486
  29   2.0000      -0.557827       -15.1792
  30   2.0000      -0.551511       -15.0074
  31   2.0000      -0.525468       -14.2987
  32   2.0000      -0.516799       -14.0628
  33   2.0000      -0.494855       -13.4657
  34   2.0000      -0.489697       -13.3253
  35   2.0000      -0.467272       -12.7151
  36   2.0000      -0.434654       -11.8275
  37   2.0000      -0.432650       -11.7730
  38   2.0000      -0.431549       -11.7430
  39   2.0000      -0.428169       -11.6511
  40   0.0000       0.120666         3.2835
  41   0.0000       0.136552         3.7158
  42   0.0000       0.153082         4.1656
  43   0.0000       0.177478         4.8294
  44   0.0000       0.184487         5.0201

MULLIKEN ATOMIC CHARGES
-----------------------
   0 C :   -0.199022
   1 C :   -0.199022
   2 C :    0.004950
   3 C :   -0.199020
   4 C :   -0.199018
   5 C :    0.004966
   6 Cl:   -0.243029
   7 Cl:   -0.243031
   8 H :    0.112082
   9 H :    0.133911
  10 H :    0.144134
  11 H :    0.133916
  12 H :    0.112084
  13 H :    0.133919
  14 H :    0.112069
  15 H :    0.144121
  16 H :    0.133914
  17 H :    0.112075
Sum of atomic charges:   -0.0000000

LOEWDIN ATOMIC CHARGES
----------------------
   0 C :    0.047853
   1 C :    0.047881
   2 C :   -0.157784
   3 C :    0.047869
   4 C :    0.047864
   5 C :   -0.157805
   6 Cl:    0.166424
   7 Cl:    0.166424
   8 H :   -0.019539
   9 H :   -0.017068
  10 H :   -0.031166
  11 H :   -0.017072
  12 H :   -0.019539
  13 H :   -0.017071
  14 H :   -0.019528
  15 H :   -0.031149
  16 H :   -0.017066
  17 H :   -0.019530

  Mayer bond orders larger than 0.1
B(  0-C ,  1-C ) :   0.9398 B(  0-C ,  5-C ) :   0.9427 B(  0-C , 16-H ) :   0.9859
B(  0-C , 17-H ) :   0.9765 B(  1-C ,  2-C ) :   0.9427 B(  1-C , 11-H ) :   0.9859
B(  1-C , 12-H ) :   0.9765 B(  2-C ,  3-C ) :   0.9427 B(  2-C ,  6-Cl) :   0.9598
B(  2-C , 10-H ) :   0.9732 B(  3-C ,  4-C ) :   0.9398 B(  3-C ,  8-H ) :   0.9765
B(  3-C ,  9-H ) :   0.9859 B(  4-C ,  5-C ) :   0.9427 B(  4-C , 13-H ) :   0.9859
B(  4-C , 14-H ) :   0.9765 B(  5-C ,  7-Cl) :   0.9598 B(  5-C , 15-H ) :   0.9732

E(0)                                       ...  -1152.168392240
E(0)                                       ...  -1152.168392240
E(CORR)(strong-pairs)                      ...     -1.478874593
E(CORR)(weak-pairs)                        ...     -0.001487166
E(CORR)(corrected)                         ...     -1.480361759
E(TOT)                                     ...  -1153.648753999
E(CCSD(T))                                 ...  -1153.711279935
FINAL SINGLE POINT ENERGY     -1153.711279935087

DIPOLE MOMENT
-------------
                                X             Y             Z
Electronic contribution:      0.00017      -0.00004      -0.00023
Nuclear contribution   :     -0.00017       0.00005       0.00027
                        -----------------------------------------
Total Dipole Moment    :      0.00000       0.00001       0.00004
                        -----------------------------------------
Magnitude (a.u.)       :      0.00004
Magnitude (Debye)      :      0.00010

Rotational constants in cm-1:     0.142264     0.020268     0.018348
Rotational constants in MHz :  4264.970933   607.630695   550.051603

                             ****ORCA TERMINATED NORMALLY****
TOTAL RUN TIME: 0 days 0 hours 15 minutes 6 seconds 702 msec
