                         Program Version 4.1.x  -  STABLE  -
|  1> ! RHF DLPNO-CCSD(T) cc-pVTZ RIJK cc-pVTZ/JK cc-pVTZ/C
|  2> ! KDIIS SOSCF TightSCF TightPNO
|  3>
|  4> %pal nprocs 8 end
|  5>
|  6> %maxcore 8000
|  7>
|  8> %scf maxiter 300
|  9>      shift shift 0.2 erroff 0.1 end
| 10> end
| 11>
| 12> * xyzfile 0 1 1_Butene_cis.xyz
| 13>
| 14>
| 15>                          ****END OF INPUT****

CARTESIAN COORDINATES (ANGSTROEM)
---------------------------------
  C     -1.541180   -0.587620    0.000020
  C     -0.856030    0.560520   -0.000010
  C      0.643590    0.720530    0.000030
  C      1.458860   -0.574840   -0.000030
  H     -1.416410    1.496650   -0.000130
  H     -2.627270   -0.592500   -0.000060
  H     -1.051970   -1.557610    0.000060
  H      2.531020   -0.353620   -0.000010
  H      1.243630   -1.183000    0.885330
  H      1.243610   -1.182940   -0.885420
  H      0.923010    1.330810   -0.871780
  H      0.922950    1.330670    0.871950

 Total Charge           Charge          ....    0
 Multiplicity           Mult            ....    1
 Number of Electrons    NEL             ....   32
 Basis Dimension        Dim             ....  232

ORBITAL ENERGIES
----------------

  NO   OCC          E(Eh)            E(eV)
   0   2.0000     -11.232442      -305.6503
   1   2.0000     -11.229122      -305.5600
   2   2.0000     -11.216052      -305.2043
   3   2.0000     -11.215573      -305.1913
   4   2.0000      -1.076446       -29.2916
   5   2.0000      -0.981345       -26.7037
   6   2.0000      -0.868477       -23.6324
   7   2.0000      -0.735815       -20.0225
   8   2.0000      -0.643009       -17.4972
   9   2.0000      -0.608964       -16.5707
  10   2.0000      -0.584037       -15.8925
  11   2.0000      -0.541153       -14.7255
  12   2.0000      -0.497638       -13.5414
  13   2.0000      -0.491986       -13.3876
  14   2.0000      -0.474460       -12.9107
  15   2.0000      -0.356557        -9.7024
  16   0.0000       0.143176         3.8960
  17   0.0000       0.165410         4.5010
  18   0.0000       0.165536         4.5045
  19   0.0000       0.180664         4.9161
  20   0.0000       0.204145         5.5551

MULLIKEN ATOMIC CHARGES
-----------------------
   0 C :   -0.358102
   1 C :   -0.132254
   2 C :   -0.109376
   3 C :   -0.308765
   4 H :    0.148780
   5 H :    0.142602
   6 H :    0.138369
   7 H :    0.105344
   8 H :    0.096856
   9 H :    0.096862
  10 H :    0.089840
  11 H :    0.089844
Sum of atomic charges:    0.0000000

LOEWDIN ATOMIC CHARGES
----------------------
   0 C :    0.066923
   1 C :    0.024541
   2 C :    0.038222
   3 C :    0.108742
   4 H :   -0.028258
   5 H :   -0.041529
   6 H :   -0.044499
   7 H :   -0.028154
   8 H :   -0.028829
   9 H :   -0.028832
  10 H :   -0.019162
  11 H :   -0.019164

  Mayer bond orders larger than 0.1
B(  0-C ,  1-C ) :   1.8697 B(  0-C ,  5-H ) :   0.9765 B(  0-C ,  6-H ) :   0.9642
B(  1-C ,  2-C ) :   0.9636 B(  1-C ,  4-H ) :   0.9675 B(  2-C ,  3-C ) :   0.9505
B(  2-C , 10-H ) :   0.9778 B(  2-C , 11-H ) :   0.9778 B(  3-C ,  7-H ) :   0.9865
B(  3-C ,  8-H ) :   0.9791 B(  3-C ,  9-H ) :   0.9791

E(0)                                       ...   -156.162158367
E(0)                                       ...   -156.162158367
E(CORR)(strong-pairs)                      ...     -0.728724514
E(CORR)(weak-pairs)                        ...     -0.000483086
E(CORR)(corrected)                         ...     -0.729207600
E(TOT)                                     ...   -156.891365967
E(CCSD(T))                                 ...   -156.920537581
FINAL SINGLE POINT ENERGY      -156.920537580869

DIPOLE MOMENT
-------------
                                X             Y             Z
Electronic contribution:     -1.75047       0.87088       0.00004
Nuclear contribution   :      1.89435      -0.76214      -0.00006
                        -----------------------------------------
Total Dipole Moment    :      0.14388       0.10873      -0.00003
                        -----------------------------------------
Magnitude (a.u.)       :      0.18034
Magnitude (Debye)      :      0.45839

Rotational constants in cm-1:     0.513916     0.182608     0.141789
Rotational constants in MHz : 15406.808857  5474.458496  4250.720181

                             ****ORCA TERMINATED NORMALLY****
TOTAL RUN TIME: 0 days 0 hours 3 minutes 56 seconds 737 msec
