                         Program Version 4.1.x  -  STABLE  -
|  1> ! RHF DLPNO-CCSD(T) cc-pVTZ RIJK cc-pVTZ/JK cc-pVTZ/C
|  2> ! KDIIS SOSCF TightSCF TightPNO
|  3>
|  4> %pal nprocs 8 end
|  5>
|  6> %maxcore 8000
|  7>
|  8> %scf maxiter 300
|  9>      shift shift 0.2 erroff 0.1 end
| 10> end
| 11>
| 12> * xyzfile 0 1 1_Butene_skew.xyz
| 13>
| 14>
| 15>                          ****END OF INPUT****

CARTESIAN COORDINATES (ANGSTROEM)
---------------------------------
  C     -1.866650    0.020710   -0.277810
  C     -0.722840   -0.300290    0.334750
  C      0.540110    0.517650    0.310140
  C      1.733580   -0.242960   -0.294660
  H     -0.672700   -1.233740    0.898970
  H     -2.742740   -0.619160   -0.223120
  H     -1.965870    0.938410   -0.854110
  H      2.643290    0.366340   -0.263440
  H      1.933040   -1.169270    0.256600
  H      1.538710   -0.511990   -1.338210
  H      0.365560    1.445010   -0.249170
  H      0.795520    0.813700    1.338010

 Total Charge           Charge          ....    0
 Multiplicity           Mult            ....    1
 Number of Electrons    NEL             ....   32
 Basis Dimension        Dim             ....  232

ORBITAL ENERGIES
----------------

  NO   OCC          E(Eh)            E(eV)
   0   2.0000     -11.231935      -305.6365
   1   2.0000     -11.227840      -305.5251
   2   2.0000     -11.218140      -305.2611
   3   2.0000     -11.217487      -305.2433
   4   2.0000      -1.075974       -29.2787
   5   2.0000      -0.985875       -26.8270
   6   2.0000      -0.854529       -23.2529
   7   2.0000      -0.752940       -20.4885
   8   2.0000      -0.639339       -17.3973
   9   2.0000      -0.603835       -16.4312
  10   2.0000      -0.582919       -15.8620
  11   2.0000      -0.533636       -14.5210
  12   2.0000      -0.515677       -14.0323
  13   2.0000      -0.485664       -13.2156
  14   2.0000      -0.474112       -12.9012
  15   2.0000      -0.357360        -9.7243
  16   0.0000       0.141521         3.8510
  17   0.0000       0.162761         4.4290
  18   0.0000       0.171803         4.6750
  19   0.0000       0.178925         4.8688
  20   0.0000       0.191659         5.2153

MULLIKEN ATOMIC CHARGES
-----------------------
   0 C :   -0.341368
   1 C :   -0.123960
   2 C :   -0.133335
   3 C :   -0.277936
   4 H :    0.145055
   5 H :    0.138077
   6 H :    0.132122
   7 H :    0.096674
   8 H :    0.086434
   9 H :    0.093329
  10 H :    0.091780
  11 H :    0.093129
Sum of atomic charges:    0.0000000

LOEWDIN ATOMIC CHARGES
----------------------
   0 C :    0.070947
   1 C :    0.022973
   2 C :    0.041548
   3 C :    0.109808
   4 H :   -0.029185
   5 H :   -0.041587
   6 H :   -0.042629
   7 H :   -0.029658
   8 H :   -0.030457
   9 H :   -0.029255
  10 H :   -0.020830
  11 H :   -0.021676

  Mayer bond orders larger than 0.1
B(  0-C ,  1-C ) :   1.8778 B(  0-C ,  5-H ) :   0.9763 B(  0-C ,  6-H ) :   0.9664
B(  1-C ,  2-C ) :   0.9598 B(  1-C ,  4-H ) :   0.9597 B(  2-C ,  3-C ) :   0.9482
B(  2-C , 10-H ) :   0.9861 B(  2-C , 11-H ) :   0.9813 B(  3-C ,  7-H ) :   0.9835
B(  3-C ,  8-H ) :   0.9812 B(  3-C ,  9-H ) :   0.9783

E(0)                                       ...   -156.163129356
E(0)                                       ...   -156.163129356
E(CORR)(strong-pairs)                      ...     -0.727992077
E(CORR)(weak-pairs)                        ...     -0.000468473
E(CORR)(corrected)                         ...     -0.728460550
E(TOT)                                     ...   -156.891589906
E(CCSD(T))                                 ...   -156.920698327
FINAL SINGLE POINT ENERGY      -156.920698327305

DIPOLE MOMENT
-------------
                                X             Y             Z
Electronic contribution:     -1.88141      -0.01285       0.50574
Nuclear contribution   :      2.02956       0.03139      -0.46538
                        -----------------------------------------
Total Dipole Moment    :      0.14815       0.01854       0.04035
                        -----------------------------------------
Magnitude (a.u.)       :      0.15466
Magnitude (Debye)      :      0.39312

Rotational constants in cm-1:     0.757698     0.136792     0.133631
Rotational constants in MHz : 22715.202634  4100.929082  4006.148049

                             ****ORCA TERMINATED NORMALLY****
TOTAL RUN TIME: 0 days 0 hours 3 minutes 50 seconds 199 msec
