                         Program Version 4.1.x  -  STABLE  -
|  1> ! RHF DLPNO-CCSD(T) cc-pVTZ RIJK cc-pVTZ/JK cc-pVTZ/C
|  2> ! KDIIS SOSCF TightSCF TightPNO
|  3>
|  4> %pal nprocs 8 end
|  5>
|  6> %maxcore 8000
|  7>
|  8> %scf maxiter 300
|  9>      shift shift 0.2 erroff 0.1 end
| 10> end
| 11>
| 12> * xyzfile 0 1 1_keto_cyclodecanone.xyz
| 13>
| 14>
| 15>                          ****END OF INPUT****

CARTESIAN COORDINATES (ANGSTROEM)
---------------------------------
  C      2.095040    1.330090    0.310080
  C      2.442520   -0.000030   -0.395890
  C      2.095000   -1.330130    0.310080
  C      0.604770   -1.676230    0.521310
  C     -0.254340   -1.685750   -0.762260
  C     -1.745540   -1.328950   -0.535460
  C     -1.995900    0.000000    0.180380
  O     -2.414430    0.000010    1.329390
  C      0.604810    1.676240    0.521310
  C     -0.254300    1.685760   -0.762260
  C     -1.745500    1.328990   -0.535450
  H      2.589230    1.347860    1.291400
  H      2.561820    2.136920   -0.272960
  H      0.547310    2.664000    0.996380
  H      0.173700    0.988690    1.252890
  H      3.530170   -0.000030   -0.547520
  H      2.022560   -0.000010   -1.409580
  H      0.164420    1.003840   -1.506060
  H     -0.217100    2.679030   -1.226330
  H      2.589190   -1.347920    1.291410
  H      2.561750   -2.136980   -0.272950
  H      0.173670   -0.988660    1.252870
  H      0.547240   -2.663990    0.996390
  H     -2.253810    1.308400   -1.508980
  H     -2.223660    2.098260    0.079070
  H     -0.217180   -2.679040   -1.226300
  H      0.164390   -1.003860   -1.506070
  H     -2.223710   -2.098190    0.079070
  H     -2.253840   -1.308340   -1.509000

 Total Charge           Charge          ....    0
 Multiplicity           Mult            ....    1
 Number of Electrons    NEL             ....   86
 Basis Dimension        Dim             ....  582

ORBITAL ENERGIES
----------------

  NO   OCC          E(Eh)            E(eV)
   0   2.0000     -20.537735      -558.8602
   1   2.0000     -11.324016      -308.1421
   2   2.0000     -11.234929      -305.7180
   3   2.0000     -11.234908      -305.7174
   4   2.0000     -11.232873      -305.6620
   5   2.0000     -11.232869      -305.6619
   6   2.0000     -11.223372      -305.4035
   7   2.0000     -11.223204      -305.3989
   8   2.0000     -11.222307      -305.3745
   9   2.0000     -11.220529      -305.3261
  10   2.0000     -11.220524      -305.3260
  11   2.0000      -1.373785       -37.3826
  12   2.0000      -1.103116       -30.0173
  13   2.0000      -1.068095       -29.0643
  14   2.0000      -1.054444       -28.6929
  15   2.0000      -0.983142       -26.7527
  16   2.0000      -0.956917       -26.0390
  17   2.0000      -0.871263       -23.7083
  18   2.0000      -0.863784       -23.5048
  19   2.0000      -0.795674       -21.6514
  20   2.0000      -0.761104       -20.7107
  21   2.0000      -0.720663       -19.6102
  22   2.0000      -0.662496       -18.0274
  23   2.0000      -0.643741       -17.5171
  24   2.0000      -0.635585       -17.2951
  25   2.0000      -0.616303       -16.7705
  26   2.0000      -0.607091       -16.5198
  27   2.0000      -0.595397       -16.2016
  28   2.0000      -0.575640       -15.6639
  29   2.0000      -0.567394       -15.4396
  30   2.0000      -0.562000       -15.2928
  31   2.0000      -0.532348       -14.4859
  32   2.0000      -0.530106       -14.4249
  33   2.0000      -0.512798       -13.9540
  34   2.0000      -0.498790       -13.5728
  35   2.0000      -0.493178       -13.4200
  36   2.0000      -0.476452       -12.9649
  37   2.0000      -0.464636       -12.6434
  38   2.0000      -0.462261       -12.5788
  39   2.0000      -0.446883       -12.1603
  40   2.0000      -0.444674       -12.1002
  41   2.0000      -0.437184       -11.8964
  42   2.0000      -0.396126       -10.7791
  43   0.0000       0.121590         3.3086
  44   0.0000       0.140285         3.8173
  45   0.0000       0.148453         4.0396
  46   0.0000       0.156884         4.2690
  47   0.0000       0.163455         4.4478

MULLIKEN ATOMIC CHARGES
-----------------------
   0 C :   -0.187770
   1 C :   -0.235326
   2 C :   -0.187765
   3 C :   -0.219056
   4 C :   -0.241581
   5 C :   -0.193037
   6 C :    0.272324
   7 O :   -0.383062
   8 C :   -0.219058
   9 C :   -0.241577
  10 C :   -0.193036
  11 H :    0.103761
  12 H :    0.100319
  13 H :    0.120900
  14 H :    0.116506
  15 H :    0.122031
  16 H :    0.095081
  17 H :    0.101293
  18 H :    0.124592
  19 H :    0.103757
  20 H :    0.100322
  21 H :    0.116509
  22 H :    0.120897
  23 H :    0.114592
  24 H :    0.123948
  25 H :    0.124589
  26 H :    0.101300
  27 H :    0.123954
  28 H :    0.114594
Sum of atomic charges:   -0.0000000

LOEWDIN ATOMIC CHARGES
----------------------
   0 C :    0.058755
   1 C :    0.052562
   2 C :    0.058749
   3 C :    0.061582
   4 C :    0.065605
   5 C :    0.057818
   6 C :   -0.220503
   7 O :    0.127798
   8 C :    0.061584
   9 C :    0.065598
  10 C :    0.057821
  11 H :   -0.023944
  12 H :   -0.024273
  13 H :   -0.022942
  14 H :   -0.031356
  15 H :   -0.020694
  16 H :   -0.036912
  17 H :   -0.035822
  18 H :   -0.022747
  19 H :   -0.023937
  20 H :   -0.024274
  21 H :   -0.031358
  22 H :   -0.022937
  23 H :   -0.019722
  24 H :   -0.014083
  25 H :   -0.022744
  26 H :   -0.035826
  27 H :   -0.014086
  28 H :   -0.019715

  Mayer bond orders larger than 0.1
B(  0-C ,  1-C ) :   0.9502 B(  0-C ,  8-C ) :   0.9577 B(  0-C , 11-H ) :   0.9877
B(  0-C , 12-H ) :   0.9899 B(  1-C ,  2-C ) :   0.9502 B(  1-C , 15-H ) :   0.9915
B(  1-C , 16-H ) :   0.9793 B(  2-C ,  3-C ) :   0.9577 B(  2-C , 19-H ) :   0.9877
B(  2-C , 20-H ) :   0.9899 B(  3-C ,  4-C ) :   0.9421 B(  3-C , 21-H ) :   0.9697
B(  3-C , 22-H ) :   0.9875 B(  4-C ,  5-C ) :   0.9494 B(  4-C , 25-H ) :   0.9840
B(  4-C , 26-H ) :   0.9751 B(  5-C ,  6-C ) :   0.9382 B(  5-C , 27-H ) :   0.9833
B(  5-C , 28-H ) :   0.9785 B(  6-C ,  7-O ) :   2.0442 B(  6-C , 10-C ) :   0.9382
B(  8-C ,  9-C ) :   0.9421 B(  8-C , 13-H ) :   0.9875 B(  8-C , 14-H ) :   0.9697
B(  9-C , 10-C ) :   0.9494 B(  9-C , 17-H ) :   0.9751 B(  9-C , 18-H ) :   0.9840
B( 10-C , 23-H ) :   0.9785 B( 10-C , 24-H ) :   0.9833

E(0)                                       ...   -464.173020814
E(0)                                       ...   -464.173020814
E(CORR)(strong-pairs)                      ...     -2.036095278
E(CORR)(weak-pairs)                        ...     -0.002452497
E(CORR)(corrected)                         ...     -2.038547775
E(TOT)                                     ...   -466.211568589
E(CCSD(T))                                 ...   -466.296213750
FINAL SINGLE POINT ENERGY      -466.296213750456

DIPOLE MOMENT
-------------
                                X             Y             Z
Electronic contribution:     -7.93889      -0.00001       2.79799
Nuclear contribution   :      8.58399      -0.00002      -3.90065
                        -----------------------------------------
Total Dipole Moment    :      0.64510      -0.00003      -1.10266
                        -----------------------------------------
Magnitude (a.u.)       :      1.27751
Magnitude (Debye)      :      3.24716

Rotational constants in cm-1:     0.046591     0.030701     0.022640
Rotational constants in MHz :  1396.777388   920.388665   678.727467

                             ****ORCA TERMINATED NORMALLY****
TOTAL RUN TIME: 0 days 0 hours 58 minutes 21 seconds 105 msec
