                         Program Version 4.1.x  -  STABLE  -
|  1> ! RHF DLPNO-CCSD(T) cc-pVTZ RIJK cc-pVTZ/JK cc-pVTZ/C
|  2> ! KDIIS SOSCF TightSCF TightPNO
|  3>
|  4> %pal nprocs 8 end
|  5>
|  6> %maxcore 8000
|  7>
|  8> %scf maxiter 300
|  9>      shift shift 0.2 erroff 0.1 end
| 10> end
| 11>
| 12> * xyzfile 0 1 1_propanol_aa.xyz
| 13>
| 14>
| 15>                          ****END OF INPUT****

CARTESIAN COORDINATES (ANGSTROEM)
---------------------------------
  C     -1.903050    0.143970   -0.000010
  C     -0.524080   -0.525160    0.000010
  C      0.615310    0.484710    0.000000
  O      1.851860   -0.234880   -0.000010
  H      0.544350    1.130010    0.889750
  H     -0.415300   -1.171090   -0.879710
  H     -0.415310   -1.171080    0.879730
  H     -2.701550   -0.604810   -0.000010
  H     -2.042730    0.775910    0.885180
  H     -2.042720    0.775910   -0.885190
  H      0.544350    1.130030   -0.889730
  H      2.584950    0.392980    0.000020

 Total Charge           Charge          ....    0
 Multiplicity           Mult            ....    1
 Number of Electrons    NEL             ....   34
 Basis Dimension        Dim             ....  232

ORBITAL ENERGIES
----------------

  NO   OCC          E(Eh)            E(eV)
   0   2.0000     -20.549253      -559.1736
   1   2.0000     -11.272767      -306.7476
   2   2.0000     -11.218430      -305.2690
   3   2.0000     -11.216746      -305.2232
   4   2.0000      -1.348662       -36.6989
   5   2.0000      -1.048272       -28.5249
   6   2.0000      -0.913290       -24.8519
   7   2.0000      -0.801594       -21.8125
   8   2.0000      -0.684290       -18.6205
   9   2.0000      -0.650977       -17.7140
  10   2.0000      -0.594577       -16.1793
  11   2.0000      -0.570340       -15.5197
  12   2.0000      -0.527401       -14.3513
  13   2.0000      -0.503285       -13.6951
  14   2.0000      -0.484062       -13.1720
  15   2.0000      -0.468711       -12.7543
  16   2.0000      -0.439521       -11.9600
  17   0.0000       0.140660         3.8275
  18   0.0000       0.150423         4.0932
  19   0.0000       0.186175         5.0661
  20   0.0000       0.188015         5.1161
  21   0.0000       0.207678         5.6512

MULLIKEN ATOMIC CHARGES
-----------------------
   0 C :   -0.302049
   1 C :   -0.156833
   2 C :    0.084783
   3 O :   -0.410840
   4 H :    0.051259
   5 H :    0.095420
   6 H :    0.095425
   7 H :    0.104926
   8 H :    0.085536
   9 H :    0.085542
  10 H :    0.051263
  11 H :    0.215569
Sum of atomic charges:   -0.0000000

LOEWDIN ATOMIC CHARGES
----------------------
   0 C :    0.105776
   1 C :    0.043500
   2 C :   -0.042547
   3 O :    0.308292
   4 H :   -0.041679
   5 H :   -0.024535
   6 H :   -0.024537
   7 H :   -0.027477
   8 H :   -0.030576
   9 H :   -0.030580
  10 H :   -0.041681
  11 H :   -0.193956

  Mayer bond orders larger than 0.1
B(  0-C ,  1-C ) :   0.9450 B(  0-C ,  7-H ) :   0.9861 B(  0-C ,  8-H ) :   0.9801
B(  0-C ,  9-H ) :   0.9801 B(  1-C ,  2-C ) :   0.9706 B(  1-C ,  5-H ) :   0.9789
B(  1-C ,  6-H ) :   0.9789 B(  2-C ,  3-O ) :   1.0022 B(  2-C ,  4-H ) :   0.9740
B(  2-C , 10-H ) :   0.9740 B(  3-O , 11-H ) :   0.9958

E(0)                                       ...   -193.189399556
E(0)                                       ...   -193.189399556
E(CORR)(strong-pairs)                      ...     -0.814960706
E(CORR)(weak-pairs)                        ...     -0.000531067
E(CORR)(corrected)                         ...     -0.815491773
E(TOT)                                     ...   -194.004891330
E(CCSD(T))                                 ...   -194.033778694
FINAL SINGLE POINT ENERGY      -194.033778694455

DIPOLE MOMENT
-------------
                                X             Y             Z
Electronic contribution:      4.07778      -0.71287      -0.00003
Nuclear contribution   :     -4.15960       1.33261       0.00005
                        -----------------------------------------
Total Dipole Moment    :     -0.08182       0.61974       0.00002
                        -----------------------------------------
Magnitude (a.u.)       :      0.62512
Magnitude (Debye)      :      1.58892

Rotational constants in cm-1:     0.885781     0.125646     0.117289
Rotational constants in MHz : 26555.031664  3766.784246  3516.241097

                             ****ORCA TERMINATED NORMALLY****
TOTAL RUN TIME: 0 days 0 hours 2 minutes 6 seconds 101 msec
