                         Program Version 4.1.x  -  STABLE  -
|  1> ! RHF DLPNO-CCSD(T) cc-pVTZ RIJK cc-pVTZ/JK cc-pVTZ/C
|  2> ! KDIIS SOSCF TightSCF TightPNO
|  3>
|  4> %pal nprocs 8 end
|  5>
|  6> %maxcore 8000
|  7>
|  8> %scf maxiter 300
|  9>      shift shift 0.2 erroff 0.1 end
| 10> end
| 11>
| 12> * xyzfile 0 1 1_propanol_ga.xyz
| 13>
| 14>
| 15>                          ****END OF INPUT****

CARTESIAN COORDINATES (ANGSTROEM)
---------------------------------
  C      1.553920   -0.514680    0.128280
  C      0.635400    0.637940   -0.292180
  C     -0.767500    0.545710    0.295320
  O     -1.397280   -0.635230   -0.214750
  H     -1.347700    1.438320    0.017320
  H      0.549900    0.670400   -1.385690
  H      1.067740    1.597800    0.020520
  H      2.548150   -0.407330   -0.318440
  H      1.678670   -0.542150    1.217790
  H      1.140400   -1.476830   -0.186610
  H     -0.711430    0.504980    1.394740
  H     -2.278480   -0.717160    0.169880

 Total Charge           Charge          ....    0
 Multiplicity           Mult            ....    1
 Number of Electrons    NEL             ....   34
 Basis Dimension        Dim             ....  232

ORBITAL ENERGIES
----------------

  NO   OCC          E(Eh)            E(eV)
   0   2.0000     -20.549505      -559.1804
   1   2.0000     -11.273227      -306.7601
   2   2.0000     -11.219146      -305.2885
   3   2.0000     -11.207337      -304.9672
   4   2.0000      -1.349011       -36.7084
   5   2.0000      -1.043691       -28.4003
   6   2.0000      -0.914648       -24.8888
   7   2.0000      -0.793817       -21.6009
   8   2.0000      -0.695914       -18.9368
   9   2.0000      -0.637614       -17.3504
  10   2.0000      -0.581359       -15.8196
  11   2.0000      -0.576511       -15.6877
  12   2.0000      -0.534416       -14.5422
  13   2.0000      -0.497352       -13.5336
  14   2.0000      -0.480580       -13.0773
  15   2.0000      -0.465908       -12.6780
  16   2.0000      -0.438146       -11.9226
  17   0.0000       0.138407         3.7662
  18   0.0000       0.166110         4.5201
  19   0.0000       0.179515         4.8848
  20   0.0000       0.188118         5.1189
  21   0.0000       0.216133         5.8813

MULLIKEN ATOMIC CHARGES
-----------------------
   0 C :   -0.287915
   1 C :   -0.160969
   2 C :    0.064200
   3 O :   -0.418514
   4 H :    0.069228
   5 H :    0.092604
   6 H :    0.086301
   7 H :    0.095654
   8 H :    0.078829
   9 H :    0.108783
  10 H :    0.053101
  11 H :    0.218697
Sum of atomic charges:    0.0000000

LOEWDIN ATOMIC CHARGES
----------------------
   0 C :    0.106709
   1 C :    0.041265
   2 C :   -0.040916
   3 O :    0.307852
   4 H :   -0.040031
   5 H :   -0.024005
   6 H :   -0.025184
   7 H :   -0.030970
   8 H :   -0.032145
   9 H :   -0.027169
  10 H :   -0.041094
  11 H :   -0.194312

  Mayer bond orders larger than 0.1
B(  0-C ,  1-C ) :   0.9546 B(  0-C ,  7-H ) :   0.9869 B(  0-C ,  8-H ) :   0.9827
B(  0-C ,  9-H ) :   0.9763 B(  1-C ,  2-C ) :   0.9650 B(  1-C ,  5-H ) :   0.9798
B(  1-C ,  6-H ) :   0.9831 B(  2-C ,  3-O ) :   0.9910 B(  2-C ,  4-H ) :   0.9847
B(  2-C , 10-H ) :   0.9757 B(  3-O , 11-H ) :   0.9945

E(0)                                       ...   -193.189307997
E(0)                                       ...   -193.189307997
E(CORR)(strong-pairs)                      ...     -0.815305534
E(CORR)(weak-pairs)                        ...     -0.000531284
E(CORR)(corrected)                         ...     -0.815836818
E(TOT)                                     ...   -194.005144814
E(CCSD(T))                                 ...   -194.034085293
FINAL SINGLE POINT ENERGY      -194.034085293024

DIPOLE MOMENT
-------------
                                X             Y             Z
Electronic contribution:     -3.06339      -0.71243      -0.58312
Nuclear contribution   :      2.78943       1.12418       0.98404
                        -----------------------------------------
Total Dipole Moment    :     -0.27397       0.41175       0.40092
                        -----------------------------------------
Magnitude (a.u.)       :      0.63666
Magnitude (Debye)      :      1.61827

Rotational constants in cm-1:     0.480261     0.167930     0.142337
Rotational constants in MHz : 14397.865595  5034.428188  4267.145015

                             ****ORCA TERMINATED NORMALLY****
TOTAL RUN TIME: 0 days 0 hours 2 minutes 6 seconds 309 msec
