                         Program Version 4.1.x  -  STABLE  -
|  1> ! RHF DLPNO-CCSD(T) cc-pVTZ RIJK cc-pVTZ/JK cc-pVTZ/C
|  2> ! KDIIS SOSCF TightSCF TightPNO
|  3>
|  4> %pal nprocs 8 end
|  5>
|  6> %maxcore 8000
|  7>
|  8> %scf maxiter 300
|  9>      shift shift 0.2 erroff 0.1 end
| 10> end
| 11>
| 12> * xyzfile 0 1 2_1_Ad_N_Me_piperidine_eq_eq.xyz
| 13>
| 14>
| 15>                          ****END OF INPUT****

CARTESIAN COORDINATES (ANGSTROEM)
---------------------------------
  N      2.055660    0.956050    0.225510
  C      1.282410   -0.131260   -0.442180
  C      1.883950   -1.496100   -0.025070
  C      3.394590   -1.612880   -0.241480
  C      4.108600   -0.461420    0.456740
  C      3.505700    0.853850   -0.018510
  C     -0.283940   -0.083350   -0.188350
  C     -0.934410   -1.477360   -0.461850
  C     -2.464400   -1.454180   -0.250820
  C     -3.120300   -0.440090   -1.204350
  C     -2.514700    0.948620   -0.936380
  C     -0.990750    0.898290   -1.174920
  C     -2.793780    1.364130    0.523570
  C     -2.164730    0.334120    1.485800
  C     -2.766690   -1.057380    1.207970
  C     -0.634810    0.294450    1.275930
  C      1.656360    2.320650   -0.116480
  H     -4.208110   -0.422590   -1.051540
  H     -2.946980   -0.732300   -2.249070
  H     -2.859250   -2.459580   -0.449240
  H     -0.706260   -1.800110   -1.487690
  H     -0.517640   -2.231780    0.212100
  H     -2.957090    1.685400   -1.620100
  H     -0.591920    1.910070   -1.096480
  H     -0.790010    0.566950   -2.203660
  H     -2.339720   -1.797590    1.898340
  H     -3.851480   -1.045950    1.380900
  H     -2.373660    0.626530    2.523430
  H     -0.184410   -0.436530    1.959760
  H     -0.202060    1.261900    1.544170
  H     -3.876710    1.430150    0.695860
  H     -2.379690    2.363330    0.717460
  H      1.416790   -0.040100   -1.542620
  H      1.394100   -2.288450   -0.594020
  H      1.661760   -1.672610    1.035560
  H      3.617300   -1.580500   -1.318170
  H      3.748320   -2.584980    0.123820
  H      5.184780   -0.466760    0.243750
  H      3.986940   -0.545370    1.544530
  H      3.731440    0.982480   -1.099280
  H      3.982250    1.690730    0.503180
  H      1.678420    2.518830   -1.205770
  H      0.662270    2.559060    0.256950
  H      2.352400    3.016770    0.361490

 Total Charge           Charge          ....    0
 Multiplicity           Mult            ....    1
 Number of Electrons    NEL             ....  130
 Basis Dimension        Dim             ....  888

ORBITAL ENERGIES
----------------

  NO   OCC          E(Eh)            E(eV)
   0   2.0000     -15.540500      -422.8785
   1   2.0000     -11.252508      -306.1963
   2   2.0000     -11.240512      -305.8699
   3   2.0000     -11.235048      -305.7212
   4   2.0000     -11.231203      -305.6166
   5   2.0000     -11.216907      -305.2276
   6   2.0000     -11.216693      -305.2217
   7   2.0000     -11.215883      -305.1997
   8   2.0000     -11.213578      -305.1370
   9   2.0000     -11.211703      -305.0860
  10   2.0000     -11.210500      -305.0532
  11   2.0000     -11.210100      -305.0423
  12   2.0000     -11.209770      -305.0333
  13   2.0000     -11.208794      -305.0068
  14   2.0000     -11.208709      -305.0045
  15   2.0000     -11.207647      -304.9756
  16   2.0000     -11.205201      -304.9090
  17   2.0000      -1.218202       -33.1490
  18   2.0000      -1.153769       -31.3957
  19   2.0000      -1.066978       -29.0339
  20   2.0000      -1.050592       -28.5881
  21   2.0000      -1.029500       -28.0141
  22   2.0000      -1.027901       -27.9706
  23   2.0000      -0.983148       -26.7528
  24   2.0000      -0.928082       -25.2544
  25   2.0000      -0.902184       -24.5497
  26   2.0000      -0.901309       -24.5259
  27   2.0000      -0.844743       -22.9866
  28   2.0000      -0.830575       -22.6011
  29   2.0000      -0.791173       -21.5289
  30   2.0000      -0.785742       -21.3811
  31   2.0000      -0.770765       -20.9736
  32   2.0000      -0.735445       -20.0125
  33   2.0000      -0.696645       -18.9567
  34   2.0000      -0.647310       -17.6142
  35   2.0000      -0.627766       -17.0824
  36   2.0000      -0.623454       -16.9651
  37   2.0000      -0.615141       -16.7388
  38   2.0000      -0.607488       -16.5306
  39   2.0000      -0.605371       -16.4730
  40   2.0000      -0.599881       -16.3236
  41   2.0000      -0.590899       -16.0792
  42   2.0000      -0.577181       -15.7059
  43   2.0000      -0.556544       -15.1443
  44   2.0000      -0.551087       -14.9958
  45   2.0000      -0.544431       -14.8147
  46   2.0000      -0.540304       -14.7024
  47   2.0000      -0.533584       -14.5196
  48   2.0000      -0.529980       -14.4215
  49   2.0000      -0.525846       -14.3090
  50   2.0000      -0.519440       -14.1347
  51   2.0000      -0.499927       -13.6037
  52   2.0000      -0.487153       -13.2561
  53   2.0000      -0.463382       -12.6093
  54   2.0000      -0.458223       -12.4689
  55   2.0000      -0.457568       -12.4510
  56   2.0000      -0.453374       -12.3369
  57   2.0000      -0.452532       -12.3140
  58   2.0000      -0.447774       -12.1846
  59   2.0000      -0.441796       -12.0219
  60   2.0000      -0.431146       -11.7321
  61   2.0000      -0.397620       -10.8198
  62   2.0000      -0.392405       -10.6779
  63   2.0000      -0.391268       -10.6469
  64   2.0000      -0.346437        -9.4270
  65   0.0000       0.130242         3.5441
  66   0.0000       0.147695         4.0190
  67   0.0000       0.152021         4.1367
  68   0.0000       0.155752         4.2382
  69   0.0000       0.169316         4.6073

MULLIKEN ATOMIC CHARGES
-----------------------
   0 N :   -0.266091
   1 C :    0.108398
   2 C :   -0.215350
   3 C :   -0.198593
   4 C :   -0.180457
   5 C :   -0.072013
   6 C :   -0.058727
   7 C :   -0.245989
   8 C :   -0.092313
   9 C :   -0.223514
  10 C :   -0.092218
  11 C :   -0.234346
  12 C :   -0.225170
  13 C :   -0.092082
  14 C :   -0.225090
  15 C :   -0.214172
  16 C :   -0.219595
  17 H :    0.102918
  18 H :    0.103226
  19 H :    0.108666
  20 H :    0.106418
  21 H :    0.116426
  22 H :    0.108584
  23 H :    0.128643
  24 H :    0.102644
  25 H :    0.102661
  26 H :    0.104225
  27 H :    0.108985
  28 H :    0.109064
  29 H :    0.131299
  30 H :    0.106332
  31 H :    0.101654
  32 H :    0.086392
  33 H :    0.116691
  34 H :    0.095543
  35 H :    0.088090
  36 H :    0.106544
  37 H :    0.103038
  38 H :    0.087807
  39 H :    0.052633
  40 H :    0.094632
  41 H :    0.071040
  42 H :    0.098733
  43 H :    0.104433
Sum of atomic charges:    0.0000000

LOEWDIN ATOMIC CHARGES
----------------------
   0 N :    0.243768
   1 C :   -0.046498
   2 C :    0.060118
   3 C :    0.052202
   4 C :    0.051754
   5 C :   -0.016171
   6 C :   -0.050111
   7 C :    0.073580
   8 C :    0.003077
   9 C :    0.067860
  10 C :    0.001878
  11 C :    0.074351
  12 C :    0.070881
  13 C :    0.003232
  14 C :    0.069955
  15 C :    0.075934
  16 C :    0.035716
  17 H :   -0.026549
  18 H :   -0.026291
  19 H :   -0.025924
  20 H :   -0.025415
  21 H :   -0.024943
  22 H :   -0.026331
  23 H :   -0.031537
  24 H :   -0.025783
  25 H :   -0.026445
  26 H :   -0.026772
  27 H :   -0.026454
  28 H :   -0.024772
  29 H :   -0.026949
  30 H :   -0.026494
  31 H :   -0.026986
  32 H :   -0.035950
  33 H :   -0.024667
  34 H :   -0.025583
  35 H :   -0.026301
  36 H :   -0.026176
  37 H :   -0.025335
  38 H :   -0.024642
  39 H :   -0.039677
  40 H :   -0.027446
  41 H :   -0.043745
  42 H :   -0.043835
  43 H :   -0.030521

  Mayer bond orders larger than 0.1
B(  0-N ,  1-C ) :   0.9551 B(  0-N ,  5-C ) :   0.9788 B(  0-N , 16-C ) :   0.9828
B(  1-C ,  2-C ) :   0.9340 B(  1-C ,  6-C ) :   0.9831 B(  1-C , 32-H ) :   0.9729
B(  2-C ,  3-C ) :   0.9631 B(  2-C , 33-H ) :   0.9941 B(  2-C , 34-H ) :   0.9814
B(  3-C ,  4-C ) :   0.9539 B(  3-C , 35-H ) :   0.9860 B(  3-C , 36-H ) :   0.9957
B(  4-C ,  5-C ) :   0.9638 B(  4-C , 37-H ) :   0.9946 B(  4-C , 38-H ) :   0.9815
B(  5-C , 39-H ) :   0.9675 B(  5-C , 40-H ) :   0.9922 B(  6-C ,  7-C ) :   0.9505
B(  6-C , 11-C ) :   0.9445 B(  6-C , 15-C ) :   0.9378 B(  7-C ,  8-C ) :   0.9660
B(  7-C , 20-H ) :   0.9944 B(  7-C , 21-H ) :   0.9976 B(  8-C ,  9-C ) :   0.9425
B(  8-C , 14-C ) :   0.9405 B(  8-C , 19-H ) :   1.0022 B(  9-C , 10-C ) :   0.9424
B(  9-C , 17-H ) :   0.9997 B(  9-C , 18-H ) :   0.9993 B( 10-C , 11-C ) :   0.9590
B( 10-C , 12-C ) :   0.9408 B( 10-C , 22-H ) :   1.0020 B( 11-C , 23-H ) :   0.9921
B( 11-C , 24-H ) :   0.9957 B( 12-C , 13-C ) :   0.9407 B( 12-C , 30-H ) :   0.9985
B( 12-C , 31-H ) :   0.9989 B( 13-C , 14-C ) :   0.9415 B( 13-C , 15-C ) :   0.9519
B( 13-C , 27-H ) :   1.0026 B( 14-C , 25-H ) :   0.9992 B( 14-C , 26-H ) :   0.9994
B( 15-C , 28-H ) :   0.9918 B( 15-C , 29-H ) :   0.9879 B( 16-C , 41-H ) :   0.9710
B( 16-C , 42-H ) :   0.9792 B( 16-C , 43-H ) :   0.9869

E(0)                                       ...   -676.272171544
E(0)                                       ...   -676.272171544
E(CORR)(strong-pairs)                      ...     -3.073544235
E(CORR)(weak-pairs)                        ...     -0.005879529
E(CORR)(corrected)                         ...     -3.079423763
E(TOT)                                     ...   -679.351595307
E(CCSD(T))                                 ...   -679.485154104
FINAL SINGLE POINT ENERGY      -679.485154103637

DIPOLE MOMENT
-------------
                                X             Y             Z
Electronic contribution:     -2.70891      -0.54577       0.77403
Nuclear contribution   :      2.76562       0.53625      -0.95715
                        -----------------------------------------
Total Dipole Moment    :      0.05671      -0.00952      -0.18312
                        -----------------------------------------
Magnitude (a.u.)       :      0.19193
Magnitude (Debye)      :      0.48786

Rotational constants in cm-1:     0.033090     0.010825     0.009757
Rotational constants in MHz :   992.027568   324.526416   292.510828

                             ****ORCA TERMINATED NORMALLY****
TOTAL RUN TIME: 0 days 5 hours 6 minutes 30 seconds 700 msec
