                         Program Version 4.1.x  -  STABLE  -
|  1> ! RHF DLPNO-CCSD(T) cc-pVTZ RIJK cc-pVTZ/JK cc-pVTZ/C
|  2> ! KDIIS SOSCF TightSCF TightPNO
|  3>
|  4> %pal nprocs 8 end
|  5>
|  6> %maxcore 8000
|  7>
|  8> %scf maxiter 300
|  9>      shift shift 0.2 erroff 0.1 end
| 10> end
| 11>
| 12> * xyzfile 0 1 2_1_Ad_N_Me_piperidine_eq_ax.xyz
| 13>
| 14>
| 15>                          ****END OF INPUT****

CARTESIAN COORDINATES (ANGSTROEM)
---------------------------------
  N      1.998130    1.019350   -0.347890
  C      1.234120   -0.254500   -0.310960
  C      1.925070   -1.294940    0.603610
  C      3.362350   -1.563470    0.117910
  C      4.155970   -0.256340   -0.037100
  C      3.352180    0.765860   -0.862620
  C     -0.311890   -0.114870   -0.115860
  C     -0.989450   -1.391800   -0.701150
  C     -2.527410   -1.311610   -0.614940
  C     -3.022360   -0.088570   -1.412380
  C     -2.386840    1.188400   -0.827400
  C     -0.849890    1.097350   -0.921200
  C     -2.802680    1.336110    0.651230
  C     -2.317450    0.106850    1.447790
  C     -2.951280   -1.169380    0.860560
  C     -0.777930    0.009100    1.362880
  C      2.012740    1.829930    0.868390
  H     -4.118120   -0.024460   -1.366780
  H     -2.751430   -0.193510   -2.471810
  H     -2.958110   -2.229160   -1.037580
  H     -0.686260   -1.513910   -1.750350
  H     -0.643820   -2.284970   -0.165540
  H     -2.729690    2.063760   -1.394870
  H     -0.399750    2.026710   -0.558800
  H     -0.539680    1.000420   -1.970460
  H     -2.628970   -2.049380    1.434100
  H     -4.046010   -1.120770    0.937800
  H     -2.609720    0.211740    2.501170
  H     -0.437560   -0.863610    1.934710
  H     -0.337520    0.889340    1.842070
  H     -3.894280    1.430330    0.731000
  H     -2.371590    2.253860    1.074370
  H      1.337470   -0.635260   -1.339040
  H      1.360720   -2.233970    0.617500
  H      1.948370   -0.931980    1.638800
  H      3.317120   -2.073430   -0.855980
  H      3.876900   -2.247960    0.803600
  H      5.123030   -0.446010   -0.520750
  H      4.379180    0.161700    0.953860
  H      3.251790    0.395970   -1.892950
  H      3.883810    1.723080   -0.919310
  H      2.337670    1.305200    1.783680
  H      2.694840    2.672330    0.712770
  H      1.023260    2.249720    1.061470

 Total Charge           Charge          ....    0
 Multiplicity           Mult            ....    1
 Number of Electrons    NEL             ....  130
 Basis Dimension        Dim             ....  888

ORBITAL ENERGIES
----------------

  NO   OCC          E(Eh)            E(eV)
   0   2.0000     -15.534663      -422.7197
   1   2.0000     -11.246008      -306.0194
   2   2.0000     -11.240216      -305.8618
   3   2.0000     -11.235819      -305.7422
   4   2.0000     -11.227223      -305.5083
   5   2.0000     -11.217118      -305.2333
   6   2.0000     -11.216994      -305.2299
   7   2.0000     -11.216732      -305.2228
   8   2.0000     -11.214394      -305.1592
   9   2.0000     -11.213724      -305.1409
  10   2.0000     -11.211971      -305.0932
  11   2.0000     -11.210064      -305.0413
  12   2.0000     -11.209463      -305.0250
  13   2.0000     -11.208871      -305.0089
  14   2.0000     -11.208768      -305.0061
  15   2.0000     -11.208067      -304.9870
  16   2.0000     -11.203244      -304.8558
  17   2.0000      -1.218326       -33.1523
  18   2.0000      -1.153554       -31.3898
  19   2.0000      -1.059977       -28.8434
  20   2.0000      -1.048985       -28.5443
  21   2.0000      -1.028883       -27.9973
  22   2.0000      -1.027457       -27.9585
  23   2.0000      -0.982407       -26.7327
  24   2.0000      -0.936765       -25.4907
  25   2.0000      -0.901337       -24.5266
  26   2.0000      -0.900070       -24.4921
  27   2.0000      -0.843635       -22.9565
  28   2.0000      -0.832316       -22.6485
  29   2.0000      -0.790174       -21.5017
  30   2.0000      -0.785585       -21.3769
  31   2.0000      -0.770597       -20.9690
  32   2.0000      -0.734976       -19.9997
  33   2.0000      -0.696030       -18.9399
  34   2.0000      -0.647679       -17.6242
  35   2.0000      -0.632375       -17.2078
  36   2.0000      -0.620993       -16.8981
  37   2.0000      -0.613159       -16.6849
  38   2.0000      -0.606655       -16.5079
  39   2.0000      -0.602898       -16.4057
  40   2.0000      -0.600912       -16.3516
  41   2.0000      -0.579818       -15.7777
  42   2.0000      -0.569697       -15.5022
  43   2.0000      -0.561360       -15.2754
  44   2.0000      -0.553879       -15.0718
  45   2.0000      -0.547889       -14.9088
  46   2.0000      -0.544398       -14.8138
  47   2.0000      -0.534924       -14.5560
  48   2.0000      -0.530837       -14.4448
  49   2.0000      -0.519370       -14.1328
  50   2.0000      -0.508731       -13.8433
  51   2.0000      -0.494467       -13.4551
  52   2.0000      -0.485045       -13.1987
  53   2.0000      -0.479859       -13.0576
  54   2.0000      -0.458614       -12.4795
  55   2.0000      -0.455686       -12.3998
  56   2.0000      -0.453965       -12.3530
  57   2.0000      -0.453417       -12.3381
  58   2.0000      -0.449487       -12.2312
  59   2.0000      -0.442299       -12.0356
  60   2.0000      -0.440731       -11.9929
  61   2.0000      -0.396648       -10.7933
  62   2.0000      -0.396458       -10.7882
  63   2.0000      -0.392495       -10.6803
  64   2.0000      -0.332336        -9.0433
  65   0.0000       0.128869         3.5067
  66   0.0000       0.144654         3.9362
  67   0.0000       0.151485         4.1221
  68   0.0000       0.157140         4.2760
  69   0.0000       0.168986         4.5983

MULLIKEN ATOMIC CHARGES
-----------------------
   0 N :   -0.249727
   1 C :    0.103760
   2 C :   -0.236916
   3 C :   -0.199401
   4 C :   -0.199686
   5 C :   -0.107331
   6 C :   -0.051376
   7 C :   -0.235172
   8 C :   -0.093895
   9 C :   -0.224033
  10 C :   -0.097696
  11 C :   -0.215499
  12 C :   -0.222618
  13 C :   -0.089401
  14 C :   -0.223855
  15 C :   -0.244808
  16 C :   -0.235659
  17 H :    0.103639
  18 H :    0.103146
  19 H :    0.108770
  20 H :    0.102755
  21 H :    0.113971
  22 H :    0.108865
  23 H :    0.129828
  24 H :    0.103311
  25 H :    0.102363
  26 H :    0.104736
  27 H :    0.108673
  28 H :    0.111796
  29 H :    0.121939
  30 H :    0.105206
  31 H :    0.101500
  32 H :    0.101133
  33 H :    0.117856
  34 H :    0.102182
  35 H :    0.087522
  36 H :    0.107665
  37 H :    0.109110
  38 H :    0.091572
  39 H :    0.086731
  40 H :    0.101110
  41 H :    0.076195
  42 H :    0.109437
  43 H :    0.102304
Sum of atomic charges:   -0.0000000

LOEWDIN ATOMIC CHARGES
----------------------
   0 N :    0.252359
   1 C :   -0.062933
   2 C :    0.059787
   3 C :    0.058103
   4 C :    0.051469
   5 C :   -0.015744
   6 C :   -0.060105
   7 C :    0.077089
   8 C :    0.002396
   9 C :    0.069943
  10 C :    0.002582
  11 C :    0.076502
  12 C :    0.070588
  13 C :    0.003485
  14 C :    0.069670
  15 C :    0.075934
  16 C :    0.033623
  17 H :   -0.026959
  18 H :   -0.026305
  19 H :   -0.026539
  20 H :   -0.025207
  21 H :   -0.028253
  22 H :   -0.026534
  23 H :   -0.024873
  24 H :   -0.021603
  25 H :   -0.026769
  26 H :   -0.026434
  27 H :   -0.026633
  28 H :   -0.025537
  29 H :   -0.029138
  30 H :   -0.026794
  31 H :   -0.026876
  32 H :   -0.018624
  33 H :   -0.028954
  34 H :   -0.031802
  35 H :   -0.026910
  36 H :   -0.028627
  37 H :   -0.027377
  38 H :   -0.030345
  39 H :   -0.028270
  40 H :   -0.029358
  41 H :   -0.049229
  42 H :   -0.029522
  43 H :   -0.041273

  Mayer bond orders larger than 0.1
B(  0-N ,  1-C ) :   0.9749 B(  0-N ,  5-C ) :   1.0069 B(  0-N , 16-C ) :   0.9820
B(  1-C ,  2-C ) :   0.9528 B(  1-C ,  6-C ) :   0.9838 B(  1-C , 32-H ) :   0.9705
B(  2-C ,  3-C ) :   0.9619 B(  2-C , 33-H ) :   0.9832 B(  2-C , 34-H ) :   0.9780
B(  3-C ,  4-C ) :   0.9453 B(  3-C , 35-H ) :   0.9882 B(  3-C , 36-H ) :   0.9969
B(  4-C ,  5-C ) :   0.9376 B(  4-C , 37-H ) :   0.9896 B(  4-C , 38-H ) :   0.9812
B(  5-C , 39-H ) :   0.9918 B(  5-C , 40-H ) :   0.9986 B(  6-C ,  7-C ) :   0.9579
B(  6-C , 11-C ) :   0.9504 B(  6-C , 15-C ) :   0.9240 B(  7-C ,  8-C ) :   0.9628
B(  7-C , 20-H ) :   0.9966 B(  7-C , 21-H ) :   0.9927 B(  8-C ,  9-C ) :   0.9415
B(  8-C , 14-C ) :   0.9397 B(  8-C , 19-H ) :   1.0017 B(  9-C , 10-C ) :   0.9409
B(  9-C , 17-H ) :   1.0000 B(  9-C , 18-H ) :   0.9991 B( 10-C , 11-C ) :   0.9511
B( 10-C , 12-C ) :   0.9406 B( 10-C , 22-H ) :   1.0030 B( 11-C , 23-H ) :   0.9899
B( 11-C , 24-H ) :   0.9930 B( 12-C , 13-C ) :   0.9430 B( 12-C , 30-H ) :   0.9992
B( 12-C , 31-H ) :   0.9990 B( 13-C , 14-C ) :   0.9423 B( 13-C , 15-C ) :   0.9652
B( 13-C , 27-H ) :   1.0024 B( 14-C , 25-H ) :   0.9994 B( 14-C , 26-H ) :   0.9992
B( 15-C , 28-H ) :   0.9963 B( 15-C , 29-H ) :   0.9917 B( 16-C , 41-H ) :   0.9662
B( 16-C , 42-H ) :   0.9847 B( 16-C , 43-H ) :   0.9794

E(0)                                       ...   -676.275640360
E(0)                                       ...   -676.275640360
E(CORR)(strong-pairs)                      ...     -3.072416650
E(CORR)(weak-pairs)                        ...     -0.005941836
E(CORR)(corrected)                         ...     -3.078358487
E(TOT)                                     ...   -679.353998846
E(CCSD(T))                                 ...   -679.487350149
FINAL SINGLE POINT ENERGY      -679.487350149391

DIPOLE MOMENT
-------------
                                X             Y             Z
Electronic contribution:     -3.38800       0.31487      -1.68337
Nuclear contribution   :      3.54967      -0.47933       1.86265
                        -----------------------------------------
Total Dipole Moment    :      0.16167      -0.16446       0.17928
                        -----------------------------------------
Magnitude (a.u.)       :      0.29211
Magnitude (Debye)      :      0.74247

Rotational constants in cm-1:     0.034459     0.010541     0.009904
Rotational constants in MHz :  1033.040131   316.015817   296.921038

                             ****ORCA TERMINATED NORMALLY****
TOTAL RUN TIME: 0 days 5 hours 23 minutes 53 seconds 832 msec
