                         Program Version 4.1.x  -  STABLE  -
|  1> ! RHF DLPNO-CCSD(T) cc-pVTZ RIJK cc-pVTZ/JK cc-pVTZ/C
|  2> ! KDIIS SOSCF TightSCF TightPNO
|  3>
|  4> %pal nprocs 8 end
|  5>
|  6> %maxcore 8000
|  7>
|  8> %scf maxiter 300
|  9>      shift shift 0.2 erroff 0.1 end
| 10> end
| 11>
| 12> * xyzfile 0 1 2_1_Ad_N_Meax_pip.xyz
| 13>
| 14>
| 15>                          ****END OF INPUT****

CARTESIAN COORDINATES (ANGSTROEM)
---------------------------------
  C     -2.395180    1.208520   -0.776870
  C     -3.050720   -0.041360   -1.382210
  C     -2.546110   -1.279540   -0.626460
  C     -0.867020    1.104740   -0.912320
  C     -1.014270   -1.367100   -0.745030
  C     -0.308980   -0.117260   -0.143330
  C     -2.768480    1.325230    0.709830
  C     -0.752430   -0.045820    1.335900
  C     -2.282280    0.072900    1.456880
  C     -2.941930   -1.176870    0.854130
  C      1.237720   -0.238000   -0.351530
  C      1.920120   -1.294990    0.544770
  C      3.368000   -1.551010    0.102780
  C      4.139560   -0.230070    0.019440
  N      1.997380    1.020670   -0.377790
  C      3.361790    0.774730   -0.842490
  H     -2.758080    2.114970   -1.322790
  H     -2.800900   -0.121810   -2.466750
  H     -4.161920    0.030650   -1.310910
  H     -3.010430   -2.195810   -1.069510
  H     -0.426500    2.054210   -0.535360
  H     -0.587620    1.036740   -1.990070
  H     -0.749550   -1.485680   -1.822110
  H     -0.677220   -2.298390   -0.235560
  H     -3.873480    1.433760    0.820410
  H     -2.308100    2.240080    1.152770
  H     -0.294310    0.816270    1.864540
  H     -0.423400   -0.956610    1.886850
  H     -2.566290    0.152690    2.536000
  H     -4.051480   -1.117470    0.955960
  H     -2.616010   -2.090600    1.405470
  H      1.318930   -0.637870   -1.390850
  H      1.375000   -2.266070    0.506800
  H      1.914240   -0.978950    1.612390
  H      3.366970   -2.040660   -0.900530
  H      3.874980   -2.252680    0.808250
  H      5.150620   -0.408960   -0.419650
  H      4.308290    0.178140    1.043280
  H      3.925490    1.736160   -0.907450
  H      3.325820    0.397400   -1.892780
  C      2.016510    1.770390    0.871060
  H      2.696350    2.649630    0.791710
  H      1.024170    2.214670    1.093770
  H      2.344880    1.164360    1.743240

 Total Charge           Charge          ....    0
 Multiplicity           Mult            ....    1
 Number of Electrons    NEL             ....  130
 Basis Dimension        Dim             ....  888

ORBITAL ENERGIES
----------------

  NO   OCC          E(Eh)            E(eV)
   0   2.0000     -15.538575      -422.8261
   1   2.0000     -11.249725      -306.1206
   2   2.0000     -11.245072      -305.9940
   3   2.0000     -11.240914      -305.8808
   4   2.0000     -11.230243      -305.5904
   5   2.0000     -11.220816      -305.3339
   6   2.0000     -11.219740      -305.3047
   7   2.0000     -11.219443      -305.2966
   8   2.0000     -11.217674      -305.2484
   9   2.0000     -11.216885      -305.2270
  10   2.0000     -11.215950      -305.2015
  11   2.0000     -11.215309      -305.1841
  12   2.0000     -11.213554      -305.1363
  13   2.0000     -11.213352      -305.1308
  14   2.0000     -11.212690      -305.1128
  15   2.0000     -11.212172      -305.0987
  16   2.0000     -11.208622      -305.0021
  17   2.0000      -1.227628       -33.4055
  18   2.0000      -1.158030       -31.5116
  19   2.0000      -1.061146       -28.8752
  20   2.0000      -1.051042       -28.6003
  21   2.0000      -1.030037       -28.0287
  22   2.0000      -1.028503       -27.9870
  23   2.0000      -0.982580       -26.7373
  24   2.0000      -0.934160       -25.4198
  25   2.0000      -0.899093       -24.4656
  26   2.0000      -0.897176       -24.4134
  27   2.0000      -0.842306       -22.9203
  28   2.0000      -0.831223       -22.6187
  29   2.0000      -0.787027       -21.4161
  30   2.0000      -0.782524       -21.2935
  31   2.0000      -0.768847       -20.9214
  32   2.0000      -0.731937       -19.9170
  33   2.0000      -0.694317       -18.8933
  34   2.0000      -0.647323       -17.6146
  35   2.0000      -0.631856       -17.1937
  36   2.0000      -0.617753       -16.8099
  37   2.0000      -0.612218       -16.6593
  38   2.0000      -0.604265       -16.4429
  39   2.0000      -0.601208       -16.3597
  40   2.0000      -0.599634       -16.3169
  41   2.0000      -0.578334       -15.7373
  42   2.0000      -0.568283       -15.4638
  43   2.0000      -0.561977       -15.2922
  44   2.0000      -0.553137       -15.0516
  45   2.0000      -0.547593       -14.9008
  46   2.0000      -0.540953       -14.7201
  47   2.0000      -0.533138       -14.5074
  48   2.0000      -0.528335       -14.3767
  49   2.0000      -0.520148       -14.1540
  50   2.0000      -0.508515       -13.8374
  51   2.0000      -0.492692       -13.4068
  52   2.0000      -0.483969       -13.1695
  53   2.0000      -0.477695       -12.9987
  54   2.0000      -0.457187       -12.4407
  55   2.0000      -0.455423       -12.3927
  56   2.0000      -0.453279       -12.3344
  57   2.0000      -0.451652       -12.2901
  58   2.0000      -0.447328       -12.1724
  59   2.0000      -0.442048       -12.0287
  60   2.0000      -0.439579       -11.9616
  61   2.0000      -0.397418       -10.8143
  62   2.0000      -0.396466       -10.7884
  63   2.0000      -0.392634       -10.6841
  64   2.0000      -0.336331        -9.1520
  65   0.0000       0.126909         3.4534
  66   0.0000       0.143389         3.9018
  67   0.0000       0.150067         4.0835
  68   0.0000       0.155997         4.2449
  69   0.0000       0.167826         4.5668

MULLIKEN ATOMIC CHARGES
-----------------------
   0 C :   -0.085322
   1 C :   -0.213420
   2 C :   -0.082795
   3 C :   -0.201667
   4 C :   -0.223951
   5 C :   -0.044632
   6 C :   -0.212124
   7 C :   -0.235992
   8 C :   -0.077858
   9 C :   -0.213205
  10 C :    0.108444
  11 C :   -0.230413
  12 C :   -0.184776
  13 C :   -0.193781
  14 N :   -0.232635
  15 C :   -0.097159
  16 H :    0.099222
  17 H :    0.096874
  18 H :    0.095989
  19 H :    0.099163
  20 H :    0.119534
  21 H :    0.098325
  22 H :    0.096669
  23 H :    0.106453
  24 H :    0.098017
  25 H :    0.095017
  26 H :    0.116953
  27 H :    0.105889
  28 H :    0.098662
  29 H :    0.097080
  30 H :    0.096221
  31 H :    0.096047
  32 H :    0.110893
  33 H :    0.097041
  34 H :    0.083648
  35 H :    0.099886
  36 H :    0.101164
  37 H :    0.088411
  38 H :    0.095661
  39 H :    0.080571
  40 C :   -0.229583
  41 H :    0.105250
  42 H :    0.097202
  43 H :    0.075027
Sum of atomic charges:   -0.0000000

LOEWDIN ATOMIC CHARGES
----------------------
   0 C :   -0.013406
   1 C :    0.057810
   2 C :   -0.012730
   3 C :    0.067483
   4 C :    0.068791
   5 C :   -0.069509
   6 C :    0.059434
   7 C :    0.064284
   8 C :   -0.011759
   9 C :    0.058156
  10 C :   -0.074480
  11 C :    0.046087
  12 C :    0.043574
  13 C :    0.036445
  14 N :    0.251469
  15 C :   -0.030643
  16 H :   -0.016087
  17 H :   -0.019040
  18 H :   -0.020188
  19 H :   -0.016060
  20 H :   -0.017246
  21 H :   -0.014390
  22 H :   -0.018754
  23 H :   -0.021432
  24 H :   -0.019486
  25 H :   -0.019703
  26 H :   -0.022172
  27 H :   -0.017192
  28 H :   -0.016321
  29 H :   -0.019564
  30 H :   -0.019777
  31 H :   -0.010529
  32 H :   -0.020255
  33 H :   -0.025714
  34 H :   -0.020653
  35 H :   -0.020464
  36 H :   -0.019854
  37 H :   -0.023832
  38 H :   -0.020572
  39 H :   -0.021053
  40 C :    0.024401
  41 H :   -0.022525
  42 H :   -0.034911
  43 H :   -0.047631

  Mayer bond orders larger than 0.1
B(  0-C ,  1-C ) :   0.9401 B(  0-C ,  3-C ) :   0.9488 B(  0-C ,  6-C ) :   0.9399
B(  0-C , 16-H ) :   1.0037 B(  1-C ,  2-C ) :   0.9406 B(  1-C , 17-H ) :   0.9999
B(  1-C , 18-H ) :   1.0006 B(  2-C ,  4-C ) :   0.9624 B(  2-C ,  9-C ) :   0.9386
B(  2-C , 19-H ) :   1.0022 B(  3-C ,  5-C ) :   0.9520 B(  3-C , 20-H ) :   0.9923
B(  3-C , 21-H ) :   0.9939 B(  4-C ,  5-C ) :   0.9608 B(  4-C , 22-H ) :   0.9969
B(  4-C , 23-H ) :   0.9937 B(  5-C ,  7-C ) :   0.9222 B(  5-C , 10-C ) :   0.9843
B(  6-C ,  8-C ) :   0.9424 B(  6-C , 24-H ) :   0.9999 B(  6-C , 25-H ) :   0.9998
B(  7-C ,  8-C ) :   0.9649 B(  7-C , 26-H ) :   0.9923 B(  7-C , 27-H ) :   0.9978
B(  8-C ,  9-C ) :   0.9416 B(  8-C , 28-H ) :   1.0032 B(  9-C , 29-H ) :   1.0000
B(  9-C , 30-H ) :   1.0003 B( 10-C , 11-C ) :   0.9515 B( 10-C , 14-N ) :   0.9827
B( 10-C , 31-H ) :   0.9701 B( 11-C , 12-C ) :   0.9612 B( 11-C , 32-H ) :   0.9845
B( 11-C , 33-H ) :   0.9781 B( 12-C , 13-C ) :   0.9430 B( 12-C , 34-H ) :   0.9887
B( 12-C , 35-H ) :   0.9979 B( 13-C , 15-C ) :   0.9361 B( 13-C , 36-H ) :   0.9903
B( 13-C , 37-H ) :   0.9807 B( 14-N , 15-C ) :   1.0094 B( 14-N , 40-C ) :   0.9800
B( 15-C , 38-H ) :   0.9993 B( 15-C , 39-H ) :   0.9923 B( 40-C , 41-H ) :   0.9852
B( 40-C , 42-H ) :   0.9806 B( 40-C , 43-H ) :   0.9681

E(0)                                       ...   -676.261877520
E(0)                                       ...   -676.261877520
E(CORR)(strong-pairs)                      ...     -3.077823763
E(CORR)(weak-pairs)                        ...     -0.005875659
E(CORR)(corrected)                         ...     -3.083699422
E(TOT)                                     ...   -679.345576942
E(CCSD(T))                                 ...   -679.479880283
FINAL SINGLE POINT ENERGY      -679.479880283025

DIPOLE MOMENT
-------------
                                X             Y             Z
Electronic contribution:     -3.31916       0.48974      -1.84808
Nuclear contribution   :      3.48567      -0.65462       2.04497
                        -----------------------------------------
Total Dipole Moment    :      0.16651      -0.16488       0.19689
                        -----------------------------------------
Magnitude (a.u.)       :      0.30606
Magnitude (Debye)      :      0.77795

Rotational constants in cm-1:     0.034851     0.010547     0.009930
Rotational constants in MHz :  1044.815362   316.182123   297.684599

                             ****ORCA TERMINATED NORMALLY****
TOTAL RUN TIME: 0 days 4 hours 11 minutes 38 seconds 625 msec
