                         Program Version 4.1.x  -  STABLE  -
|  1> ! RHF DLPNO-CCSD(T) cc-pVTZ RIJK cc-pVTZ/JK cc-pVTZ/C
|  2> ! KDIIS SOSCF TightSCF TightPNO
|  3>
|  4> %pal nprocs 8 end
|  5>
|  6> %maxcore 8000
|  7>
|  8> %scf maxiter 300
|  9>      shift shift 0.2 erroff 0.1 end
| 10> end
| 11>
| 12> * xyzfile 0 1 2_1_Ad_N_Meax_pip_ecl.xyz
| 13>
| 14>
| 15>                          ****END OF INPUT****

CARTESIAN COORDINATES (ANGSTROEM)
---------------------------------
  C      2.373990    1.436220   -0.012350
  C      2.992310    0.767630    1.222600
  C      2.530540   -0.695270    1.261220
  C      0.838640    1.378840    0.075570
  C      0.993390   -0.742450    1.313660
  C      0.306450   -0.074940    0.074880
  C      2.835010    0.713260   -1.288450
  C      0.870400   -0.867110   -1.126540
  C      2.402600   -0.759910   -1.225310
  C      3.030170   -1.427500    0.007550
  C     -1.244470   -0.264900    0.293730
  C     -1.995040   -1.234040   -0.645580
  C     -3.404270   -1.510070   -0.088180
  C     -4.181370   -0.217470    0.191050
  N     -1.983490    1.005160    0.297740
  C     -3.302740    0.827300    0.902840
  H      2.707310    2.503640   -0.051700
  H      2.675350    1.300060    2.150620
  H      4.105880    0.824360    1.180600
  H      2.954750   -1.190660    2.170130
  H      0.472000    1.960860   -0.794550
  H      0.496120    1.915540    0.991230
  H      0.664230   -0.238630    2.253900
  H      0.680680   -1.810890    1.397970
  H      3.944190    0.783220   -1.388030
  H      2.398880    1.203000   -2.191200
  H      0.419060   -0.459390   -2.060840
  H      0.607500   -1.947940   -1.076730
  H      2.754050   -1.287660   -2.146960
  H      4.143730   -1.387540   -0.050560
  H      2.748290   -2.506280    0.051690
  H     -1.359370   -0.693590    1.316520
  H     -1.475940   -2.219830   -0.673920
  H     -2.041520   -0.870470   -1.697220
  H     -3.308410   -2.076330    0.869600
  H     -3.978760   -2.163810   -0.787900
  H     -5.080170   -0.442730    0.814450
  H     -4.586680    0.184860   -0.765860
  H     -3.835090    1.808120    0.942400
  H     -3.172520    0.522990    1.969230
  C     -2.131730    1.634930   -1.013870
  H     -2.311090    2.727500   -0.884830
  H     -1.244590    1.504910   -1.666970
  H     -2.976730    1.233350   -1.612070

 Total Charge           Charge          ....    0
 Multiplicity           Mult            ....    1
 Number of Electrons    NEL             ....  130
 Basis Dimension        Dim             ....  888

ORBITAL ENERGIES
----------------

  NO   OCC          E(Eh)            E(eV)
   0   2.0000     -15.535685      -422.7475
   1   2.0000     -11.250650      -306.1458
   2   2.0000     -11.245408      -306.0031
   3   2.0000     -11.239913      -305.8536
   4   2.0000     -11.230873      -305.6076
   5   2.0000     -11.222226      -305.3723
   6   2.0000     -11.219551      -305.2995
   7   2.0000     -11.217776      -305.2512
   8   2.0000     -11.217369      -305.2401
   9   2.0000     -11.217195      -305.2354
  10   2.0000     -11.216754      -305.2234
  11   2.0000     -11.214674      -305.1668
  12   2.0000     -11.213397      -305.1320
  13   2.0000     -11.213326      -305.1301
  14   2.0000     -11.213048      -305.1225
  15   2.0000     -11.211080      -305.0690
  16   2.0000     -11.209563      -305.0277
  17   2.0000      -1.227603       -33.4048
  18   2.0000      -1.157298       -31.4917
  19   2.0000      -1.057198       -28.7678
  20   2.0000      -1.049049       -28.5461
  21   2.0000      -1.029993       -28.0275
  22   2.0000      -1.027415       -27.9574
  23   2.0000      -0.985142       -26.8071
  24   2.0000      -0.933710       -25.4075
  25   2.0000      -0.899812       -24.4851
  26   2.0000      -0.895092       -24.3567
  27   2.0000      -0.842350       -22.9215
  28   2.0000      -0.830629       -22.6026
  29   2.0000      -0.785605       -21.3774
  30   2.0000      -0.782943       -21.3050
  31   2.0000      -0.768835       -20.9211
  32   2.0000      -0.729810       -19.8591
  33   2.0000      -0.693795       -18.8791
  34   2.0000      -0.646215       -17.5844
  35   2.0000      -0.634838       -17.2748
  36   2.0000      -0.620504       -16.8848
  37   2.0000      -0.610018       -16.5994
  38   2.0000      -0.604075       -16.4377
  39   2.0000      -0.602215       -16.3871
  40   2.0000      -0.597558       -16.2604
  41   2.0000      -0.578959       -15.7543
  42   2.0000      -0.563749       -15.3404
  43   2.0000      -0.557288       -15.1646
  44   2.0000      -0.551806       -15.0154
  45   2.0000      -0.547886       -14.9087
  46   2.0000      -0.538459       -14.6522
  47   2.0000      -0.532625       -14.4935
  48   2.0000      -0.530283       -14.4297
  49   2.0000      -0.519712       -14.1421
  50   2.0000      -0.506041       -13.7701
  51   2.0000      -0.492178       -13.3929
  52   2.0000      -0.486936       -13.2502
  53   2.0000      -0.482481       -13.1290
  54   2.0000      -0.459412       -12.5012
  55   2.0000      -0.452644       -12.3171
  56   2.0000      -0.451028       -12.2731
  57   2.0000      -0.449811       -12.2400
  58   2.0000      -0.448256       -12.1977
  59   2.0000      -0.439818       -11.9681
  60   2.0000      -0.436089       -11.8666
  61   2.0000      -0.401518       -10.9259
  62   2.0000      -0.396196       -10.7810
  63   2.0000      -0.388163       -10.5624
  64   2.0000      -0.332924        -9.0593
  65   0.0000       0.125619         3.4183
  66   0.0000       0.142235         3.8704
  67   0.0000       0.149437         4.0664
  68   0.0000       0.155877         4.2416
  69   0.0000       0.166936         4.5425

MULLIKEN ATOMIC CHARGES
-----------------------
   0 C :   -0.082158
   1 C :   -0.213666
   2 C :   -0.080984
   3 C :   -0.204963
   4 C :   -0.217099
   5 C :   -0.013077
   6 C :   -0.214169
   7 C :   -0.218609
   8 C :   -0.079823
   9 C :   -0.214588
  10 C :    0.081027
  11 C :   -0.220703
  12 C :   -0.188313
  13 C :   -0.195185
  14 N :   -0.234713
  15 C :   -0.099069
  16 H :    0.099597
  17 H :    0.097699
  18 H :    0.094564
  19 H :    0.098352
  20 H :    0.108400
  21 H :    0.111224
  22 H :    0.097452
  23 H :    0.094958
  24 H :    0.097645
  25 H :    0.093979
  26 H :    0.099018
  27 H :    0.110014
  28 H :    0.099625
  29 H :    0.096204
  30 H :    0.096252
  31 H :    0.095728
  32 H :    0.102329
  33 H :    0.105870
  34 H :    0.082554
  35 H :    0.100599
  36 H :    0.100798
  37 H :    0.085384
  38 H :    0.091838
  39 H :    0.082291
  40 C :   -0.240844
  41 H :    0.108723
  42 H :    0.103021
  43 H :    0.082821
Sum of atomic charges:    0.0000000

LOEWDIN ATOMIC CHARGES
----------------------
   0 C :   -0.012882
   1 C :    0.056823
   2 C :   -0.014163
   3 C :    0.066172
   4 C :    0.058398
   5 C :   -0.059779
   6 C :    0.059333
   7 C :    0.059690
   8 C :   -0.011494
   9 C :    0.057638
  10 C :   -0.065982
  11 C :    0.046031
  12 C :    0.045280
  13 C :    0.034690
  14 N :    0.247793
  15 C :   -0.030368
  16 H :   -0.015040
  17 H :   -0.018545
  18 H :   -0.020553
  19 H :   -0.016579
  20 H :   -0.023776
  21 H :   -0.013523
  22 H :   -0.017963
  23 H :   -0.019974
  24 H :   -0.019316
  25 H :   -0.020043
  26 H :   -0.022780
  27 H :   -0.017007
  28 H :   -0.016164
  29 H :   -0.019671
  30 H :   -0.020044
  31 H :   -0.010356
  32 H :   -0.021847
  33 H :   -0.022824
  34 H :   -0.020029
  35 H :   -0.019779
  36 H :   -0.019551
  37 H :   -0.027679
  38 H :   -0.019012
  39 H :   -0.021900
  40 C :    0.026238
  41 H :   -0.026337
  42 H :   -0.029884
  43 H :   -0.043242

  Mayer bond orders larger than 0.1
B(  0-C ,  1-C ) :   0.9431 B(  0-C ,  3-C ) :   0.9504 B(  0-C ,  6-C ) :   0.9386
B(  0-C , 16-H ) :   1.0042 B(  1-C ,  2-C ) :   0.9406 B(  1-C , 17-H ) :   0.9996
B(  1-C , 18-H ) :   1.0006 B(  2-C ,  4-C ) :   0.9610 B(  2-C ,  9-C ) :   0.9391
B(  2-C , 19-H ) :   1.0025 B(  3-C ,  5-C ) :   0.9526 B(  3-C , 20-H ) :   0.9973
B(  3-C , 21-H ) :   0.9902 B(  4-C ,  5-C ) :   0.9467 B(  4-C , 22-H ) :   0.9994
B(  4-C , 23-H ) :   0.9992 B(  5-C ,  7-C ) :   0.9388 B(  5-C , 10-C ) :   0.9404
B(  6-C ,  8-C ) :   0.9438 B(  6-C , 24-H ) :   0.9998 B(  6-C , 25-H ) :   1.0002
B(  7-C ,  8-C ) :   0.9598 B(  7-C , 26-H ) :   0.9957 B(  7-C , 27-H ) :   0.9973
B(  8-C ,  9-C ) :   0.9381 B(  8-C , 28-H ) :   1.0034 B(  9-C , 29-H ) :   1.0001
B(  9-C , 30-H ) :   1.0005 B( 10-C , 11-C ) :   0.9363 B( 10-C , 14-N ) :   0.9700
B( 10-C , 31-H ) :   0.9855 B( 11-C , 12-C ) :   0.9627 B( 11-C , 32-H ) :   0.9882
B( 11-C , 33-H ) :   0.9759 B( 12-C , 13-C ) :   0.9487 B( 12-C , 34-H ) :   0.9882
B( 12-C , 35-H ) :   0.9968 B( 13-C , 15-C ) :   0.9425 B( 13-C , 36-H ) :   0.9900
B( 13-C , 37-H ) :   0.9800 B( 14-N , 15-C ) :   1.0084 B( 14-N , 40-C ) :   0.9666
B( 15-C , 38-H ) :   0.9977 B( 15-C , 39-H ) :   0.9920 B( 40-C , 41-H ) :   0.9882
B( 40-C , 42-H ) :   0.9802 B( 40-C , 43-H ) :   0.9715

E(0)                                       ...   -676.246913095
E(0)                                       ...   -676.246913095
E(CORR)(strong-pairs)                      ...     -3.078937836
E(CORR)(weak-pairs)                        ...     -0.005919412
E(CORR)(corrected)                         ...     -3.084857248
E(TOT)                                     ...   -679.331770343
E(CCSD(T))                                 ...   -679.466264657
FINAL SINGLE POINT ENERGY      -679.466264656539

DIPOLE MOMENT
-------------
                                X             Y             Z
Electronic contribution:      3.58859       0.65729       1.64953
Nuclear contribution   :     -3.77679      -0.85507      -1.81938
                        -----------------------------------------
Total Dipole Moment    :     -0.18821      -0.19778      -0.16985
                        -----------------------------------------
Magnitude (a.u.)       :      0.32154
Magnitude (Debye)      :      0.81728

Rotational constants in cm-1:     0.035187     0.010336     0.009814
Rotational constants in MHz :  1054.867373   309.860860   294.221732

                             ****ORCA TERMINATED NORMALLY****
TOTAL RUN TIME: 0 days 4 hours 13 minutes 58 seconds 125 msec
