                         Program Version 4.1.x  -  STABLE  -
|  1> ! RHF DLPNO-CCSD(T) cc-pVTZ RIJK cc-pVTZ/JK cc-pVTZ/C
|  2> ! KDIIS SOSCF TightSCF TightPNO
|  3>
|  4> %pal nprocs 8 end
|  5>
|  6> %maxcore 8000
|  7>
|  8> %scf maxiter 300
|  9>      shift shift 0.2 erroff 0.1 end
| 10> end
| 11>
| 12> * xyzfile 0 1 2_2_Ad_N_Me_piperidine_eq_ax.xyz
| 13>
| 14>
| 15>                          ****END OF INPUT****

CARTESIAN COORDINATES (ANGSTROEM)
---------------------------------
  C      1.435160    0.573700    1.640990
  C      2.353750   -0.640500    1.389330
  C      3.594470   -0.185600    0.590450
  C      3.148650    0.421170   -0.757240
  C      2.227260    1.630490   -0.495360
  C      0.978920    1.178720    0.294070
  C      1.580170   -1.701020    0.576610
  C      1.123320   -1.096930   -0.770350
  C      2.372090   -0.642030   -1.560370
  C      0.195020    0.133050   -0.550500
  C     -1.196980   -0.205560    0.038680
  C     -1.990990   -1.254210   -0.777050
  C     -3.331730   -1.586280   -0.094340
  C     -4.134410   -0.317160    0.231010
  C     -3.246760    0.691340    0.982880
  N     -1.997260    1.020220    0.285520
  C     -2.210350    1.892580   -0.868550
  H     -1.047200   -0.637010    1.038550
  H     -1.407410   -2.174540   -0.886400
  H     -2.169790   -0.876010   -1.793420
  H     -3.126420   -2.127630    0.841620
  H     -3.920360   -2.266160   -0.722860
  H     -5.016160   -0.561760    0.837700
  H     -4.508340    0.135810   -0.697150
  H     -2.978290    0.270700    1.962960
  H     -3.791240    1.623910    1.174850
  H     -2.727630    1.424040   -1.724220
  H     -2.812320    2.749590   -0.548180
  H     -1.256510    2.283960   -1.232490
  H      4.162770    0.556290    1.168320
  H      4.265110   -1.038680    0.416470
  H      4.030780    0.742290   -1.327230
  H      3.017810   -1.508080   -1.761660
  H      2.070920   -0.235500   -2.535630
  H      2.671040   -1.070420    2.348830
  H      0.721320   -2.066500    1.154500
  H      2.221950   -2.572760    0.387370
  H      1.927310    2.088920   -1.448190
  H      2.768700    2.400730    0.071300
  H      0.331730    2.039080    0.491950
  H      0.023800    0.571360   -1.545060
  H      1.973050    1.338070    2.218740
  H      0.569150    0.279770    2.246300
  H      0.601620   -1.861430   -1.357150

 Total Charge           Charge          ....    0
 Multiplicity           Mult            ....    1
 Number of Electrons    NEL             ....  130
 Basis Dimension        Dim             ....  888

ORBITAL ENERGIES
----------------

  NO   OCC          E(Eh)            E(eV)
   0   2.0000     -15.534969      -422.7280
   1   2.0000     -11.245353      -306.0016
   2   2.0000     -11.240713      -305.8754
   3   2.0000     -11.236478      -305.7601
   4   2.0000     -11.217776      -305.2512
   5   2.0000     -11.217277      -305.2376
   6   2.0000     -11.215859      -305.1990
   7   2.0000     -11.215839      -305.1985
   8   2.0000     -11.215785      -305.1970
   9   2.0000     -11.213903      -305.1458
  10   2.0000     -11.212608      -305.1106
  11   2.0000     -11.210793      -305.0612
  12   2.0000     -11.210077      -305.0417
  13   2.0000     -11.209799      -305.0342
  14   2.0000     -11.208678      -305.0036
  15   2.0000     -11.207573      -304.9736
  16   2.0000     -11.205973      -304.9300
  17   2.0000      -1.219395       -33.1814
  18   2.0000      -1.152693       -31.3664
  19   2.0000      -1.058835       -28.8124
  20   2.0000      -1.047163       -28.4947
  21   2.0000      -1.027696       -27.9650
  22   2.0000      -1.026587       -27.9348
  23   2.0000      -0.990995       -26.9664
  24   2.0000      -0.938331       -25.5333
  25   2.0000      -0.899276       -24.4706
  26   2.0000      -0.898182       -24.4408
  27   2.0000      -0.839540       -22.8450
  28   2.0000      -0.825029       -22.4502
  29   2.0000      -0.788733       -21.4625
  30   2.0000      -0.784941       -21.3593
  31   2.0000      -0.774760       -21.0823
  32   2.0000      -0.739532       -20.1237
  33   2.0000      -0.694222       -18.8907
  34   2.0000      -0.649556       -17.6753
  35   2.0000      -0.638787       -17.3823
  36   2.0000      -0.631352       -17.1800
  37   2.0000      -0.610650       -16.6166
  38   2.0000      -0.610220       -16.6049
  39   2.0000      -0.603416       -16.4198
  40   2.0000      -0.592077       -16.1112
  41   2.0000      -0.573857       -15.6155
  42   2.0000      -0.567975       -15.4554
  43   2.0000      -0.558546       -15.1988
  44   2.0000      -0.550199       -14.9717
  45   2.0000      -0.548909       -14.9366
  46   2.0000      -0.541904       -14.7460
  47   2.0000      -0.535612       -14.5747
  48   2.0000      -0.532433       -14.4882
  49   2.0000      -0.526174       -14.3179
  50   2.0000      -0.507101       -13.7989
  51   2.0000      -0.495011       -13.4699
  52   2.0000      -0.487442       -13.2640
  53   2.0000      -0.479314       -13.0428
  54   2.0000      -0.467099       -12.7104
  55   2.0000      -0.455321       -12.3899
  56   2.0000      -0.453836       -12.3495
  57   2.0000      -0.452656       -12.3174
  58   2.0000      -0.444981       -12.1086
  59   2.0000      -0.442524       -12.0417
  60   2.0000      -0.433096       -11.7851
  61   2.0000      -0.398406       -10.8412
  62   2.0000      -0.395869       -10.7721
  63   2.0000      -0.391705       -10.6588
  64   2.0000      -0.332443        -9.0462
  65   0.0000       0.128645         3.5006
  66   0.0000       0.143830         3.9138
  67   0.0000       0.145815         3.9678
  68   0.0000       0.157843         4.2951
  69   0.0000       0.169713         4.6181

MULLIKEN ATOMIC CHARGES
-----------------------
   0 C :   -0.241858
   1 C :   -0.071957
   2 C :   -0.227240
   3 C :   -0.074249
   4 C :   -0.237347
   5 C :   -0.072097
   6 C :   -0.237582
   7 C :   -0.115768
   8 C :   -0.229158
   9 C :   -0.124856
  10 C :    0.007189
  11 C :   -0.224897
  12 C :   -0.197594
  13 C :   -0.203918
  14 C :   -0.104738
  15 N :   -0.253509
  16 C :   -0.228107
  17 H :    0.110521
  18 H :    0.117201
  19 H :    0.100431
  20 H :    0.087701
  21 H :    0.109025
  22 H :    0.109148
  23 H :    0.092661
  24 H :    0.086471
  25 H :    0.102100
  26 H :    0.074907
  27 H :    0.105905
  28 H :    0.105389
  29 H :    0.103278
  30 H :    0.102674
  31 H :    0.107826
  32 H :    0.102563
  33 H :    0.103435
  34 H :    0.107983
  35 H :    0.109214
  36 H :    0.108713
  37 H :    0.101919
  38 H :    0.102381
  39 H :    0.128823
  40 H :    0.114906
  41 H :    0.107658
  42 H :    0.113478
  43 H :    0.121372
Sum of atomic charges:    0.0000000

LOEWDIN ATOMIC CHARGES
----------------------
   0 C :    0.074533
   1 C :    0.002556
   2 C :    0.070773
   3 C :    0.001275
   4 C :    0.071533
   5 C :    0.014030
   6 C :    0.071964
   7 C :    0.013199
   8 C :    0.072588
   9 C :    0.012524
  10 C :   -0.068942
  11 C :    0.061969
  12 C :    0.057118
  13 C :    0.050875
  14 C :   -0.017155
  15 N :    0.252787
  16 C :    0.034398
  17 H :   -0.028639
  18 H :   -0.028553
  19 H :   -0.029932
  20 H :   -0.026793
  21 H :   -0.028251
  22 H :   -0.027300
  23 H :   -0.030693
  24 H :   -0.028003
  25 H :   -0.028839
  26 H :   -0.049046
  27 H :   -0.029807
  28 H :   -0.034394
  29 H :   -0.026595
  30 H :   -0.027114
  31 H :   -0.027767
  32 H :   -0.026149
  33 H :   -0.026810
  34 H :   -0.027837
  35 H :   -0.029694
  36 H :   -0.025678
  37 H :   -0.027715
  38 H :   -0.026112
  39 H :   -0.026604
  40 H :   -0.024822
  41 H :   -0.025276
  42 H :   -0.027817
  43 H :   -0.029784

  Mayer bond orders larger than 0.1
B(  0-C ,  1-C ) :   0.9413 B(  0-C ,  5-C ) :   0.9432 B(  0-C , 41-H ) :   0.9976
B(  0-C , 42-H ) :   0.9959 B(  1-C ,  2-C ) :   0.9424 B(  1-C ,  6-C ) :   0.9410
B(  1-C , 34-H ) :   1.0020 B(  2-C ,  3-C ) :   0.9413 B(  2-C , 29-H ) :   0.9983
B(  2-C , 30-H ) :   0.9987 B(  3-C ,  4-C ) :   0.9412 B(  3-C ,  8-C ) :   0.9443
B(  3-C , 31-H ) :   1.0012 B(  4-C ,  5-C ) :   0.9414 B(  4-C , 37-H ) :   0.9997
B(  4-C , 38-H ) :   1.0014 B(  5-C ,  9-C ) :   0.9472 B(  5-C , 39-H ) :   0.9863
B(  6-C ,  7-C ) :   0.9387 B(  6-C , 35-H ) :   0.9949 B(  6-C , 36-H ) :   0.9977
B(  7-C ,  8-C ) :   0.9544 B(  7-C ,  9-C ) :   0.9583 B(  7-C , 43-H ) :   0.9965
B(  8-C , 32-H ) :   1.0005 B(  8-C , 33-H ) :   0.9987 B(  9-C , 10-C ) :   1.0086
B(  9-C , 40-H ) :   0.9794 B( 10-C , 11-C ) :   0.9551 B( 10-C , 15-N ) :   0.9754
B( 10-C , 17-H ) :   0.9683 B( 11-C , 12-C ) :   0.9612 B( 11-C , 18-H ) :   0.9867
B( 11-C , 19-H ) :   0.9782 B( 12-C , 13-C ) :   0.9442 B( 12-C , 20-H ) :   0.9866
B( 12-C , 21-H ) :   0.9961 B( 13-C , 14-C ) :   0.9367 B( 13-C , 22-H ) :   0.9895
B( 13-C , 23-H ) :   0.9814 B( 14-C , 15-N ) :   1.0083 B( 14-C , 24-H ) :   0.9918
B( 14-C , 25-H ) :   0.9978 B( 15-N , 16-C ) :   0.9764 B( 16-C , 26-H ) :   0.9688
B( 16-C , 27-H ) :   0.9851 B( 16-C , 28-H ) :   0.9803

E(0)                                       ...   -676.280006063
E(0)                                       ...   -676.280006063
E(CORR)(strong-pairs)                      ...     -3.070773143
E(CORR)(weak-pairs)                        ...     -0.005761192
E(CORR)(corrected)                         ...     -3.076534335
E(TOT)                                     ...   -679.356540399
E(CCSD(T))                                 ...   -679.489555686
FINAL SINGLE POINT ENERGY      -679.489555686384

DIPOLE MOMENT
-------------
                                X             Y             Z
Electronic contribution:      3.36657       0.35007       1.11426
Nuclear contribution   :     -3.57371      -0.50839      -1.27463
                        -----------------------------------------
Total Dipole Moment    :     -0.20714      -0.15832      -0.16038
                        -----------------------------------------
Magnitude (a.u.)       :      0.30609
Magnitude (Debye)      :      0.77803

Rotational constants in cm-1:     0.033882     0.010489     0.009873
Rotational constants in MHz :  1015.744536   314.446217   295.998962

                             ****ORCA TERMINATED NORMALLY****
TOTAL RUN TIME: 0 days 5 hours 17 minutes 38 seconds 669 msec
