                         Program Version 4.1.x  -  STABLE  -
|  1> ! RHF DLPNO-CCSD(T) cc-pVTZ RIJK cc-pVTZ/JK cc-pVTZ/C
|  2> ! KDIIS SOSCF TightSCF TightPNO
|  3>
|  4> %pal nprocs 8 end
|  5>
|  6> %maxcore 8000
|  7>
|  8> %scf maxiter 300
|  9>      shift shift 0.2 erroff 0.1 end
| 10> end
| 11>
| 12> * xyzfile 0 1 2_2_Ad_N_Me_piperidine_ax_ax.xyz
| 13>
| 14>
| 15>                          ****END OF INPUT****

CARTESIAN COORDINATES (ANGSTROEM)
---------------------------------
  C      1.889760    0.250950    1.810020
  C      2.892220   -0.612440    1.016940
  C      3.595980    0.262930   -0.042690
  C      2.545950    0.858880   -1.004890
  C      1.545860    1.715950   -0.200700
  C      0.830970    0.841000    0.853720
  C      2.128690   -1.750570    0.308560
  C      1.068750   -1.161330   -0.650670
  C      1.784810   -0.287010   -1.705700
  C      0.052490   -0.322890    0.178180
  C     -1.191250    0.157610   -0.625070
  C     -2.041750   -1.001920   -1.210280
  C     -2.842980   -1.750570   -0.130430
  C     -3.685130   -0.765650    0.696540
  C     -2.801570    0.379800    1.225510
  N     -2.022980    1.073410    0.191000
  C     -2.815030    2.010590   -0.597970
  H     -0.832100    0.759160   -1.466970
  H     -1.412680   -1.698280   -1.774640
  H     -2.747100   -0.576600   -1.937010
  H     -2.160930   -2.296750    0.535360
  H     -3.485030   -2.506750   -0.598670
  H     -4.169560   -1.276620    1.538640
  H     -4.490840   -0.357950    0.070960
  H     -2.102250   -0.024910    1.969460
  H     -3.409310    1.127660    1.748170
  H     -3.601170    1.552130   -1.225290
  H     -3.303390    2.724000    0.075140
  H     -2.152700    2.578970   -1.259500
  H      4.156690    1.070560    0.447730
  H      4.325410   -0.336860   -0.604340
  H      3.047980    1.481570   -1.757370
  H      2.485810   -0.908350   -2.279950
  H      1.068570    0.121700   -2.429890
  H      3.639660   -1.038490    1.699420
  H      1.643280   -2.399210    1.050460
  H      2.829890   -2.380860   -0.255510
  H      0.818270    2.186010   -0.873770
  H      2.075370    2.535910    0.303540
  H      0.122200    1.457540    1.414450
  H     -0.307700   -0.977010    0.984830
  H      2.418880    1.062580    2.328270
  H      1.401490   -0.355050    2.585750
  H      0.555550   -1.989940   -1.152640

 Total Charge           Charge          ....    0
 Multiplicity           Mult            ....    1
 Number of Electrons    NEL             ....  130
 Basis Dimension        Dim             ....  888

ORBITAL ENERGIES
----------------

  NO   OCC          E(Eh)            E(eV)
   0   2.0000     -15.533827      -422.6969
   1   2.0000     -11.245568      -306.0075
   2   2.0000     -11.240903      -305.8805
   3   2.0000     -11.238223      -305.8076
   4   2.0000     -11.217113      -305.2332
   5   2.0000     -11.216705      -305.2221
   6   2.0000     -11.215210      -305.1814
   7   2.0000     -11.214897      -305.1729
   8   2.0000     -11.214543      -305.1632
   9   2.0000     -11.213449      -305.1335
  10   2.0000     -11.212990      -305.1210
  11   2.0000     -11.209489      -305.0257
  12   2.0000     -11.209202      -305.0179
  13   2.0000     -11.207917      -304.9829
  14   2.0000     -11.207882      -304.9820
  15   2.0000     -11.205899      -304.9280
  16   2.0000     -11.205267      -304.9108
  17   2.0000      -1.219411       -33.1819
  18   2.0000      -1.151533       -31.3348
  19   2.0000      -1.060616       -28.8608
  20   2.0000      -1.042926       -28.3795
  21   2.0000      -1.026935       -27.9443
  22   2.0000      -1.025423       -27.9032
  23   2.0000      -0.993680       -27.0394
  24   2.0000      -0.938817       -25.5465
  25   2.0000      -0.897553       -24.4237
  26   2.0000      -0.889767       -24.2118
  27   2.0000      -0.840150       -22.8616
  28   2.0000      -0.832367       -22.6499
  29   2.0000      -0.788932       -21.4679
  30   2.0000      -0.784452       -21.3460
  31   2.0000      -0.781325       -21.2609
  32   2.0000      -0.727325       -19.7915
  33   2.0000      -0.687447       -18.7064
  34   2.0000      -0.660409       -17.9706
  35   2.0000      -0.631883       -17.1944
  36   2.0000      -0.623581       -16.9685
  37   2.0000      -0.620400       -16.8819
  38   2.0000      -0.608888       -16.5687
  39   2.0000      -0.601487       -16.3673
  40   2.0000      -0.593190       -16.1415
  41   2.0000      -0.574017       -15.6198
  42   2.0000      -0.566591       -15.4177
  43   2.0000      -0.558473       -15.1968
  44   2.0000      -0.549424       -14.9506
  45   2.0000      -0.547946       -14.9104
  46   2.0000      -0.542680       -14.7671
  47   2.0000      -0.536131       -14.5889
  48   2.0000      -0.531562       -14.4645
  49   2.0000      -0.523531       -14.2460
  50   2.0000      -0.510447       -13.8900
  51   2.0000      -0.501766       -13.6538
  52   2.0000      -0.489858       -13.3297
  53   2.0000      -0.480971       -13.0879
  54   2.0000      -0.461900       -12.5689
  55   2.0000      -0.454326       -12.3628
  56   2.0000      -0.452400       -12.3104
  57   2.0000      -0.451735       -12.2923
  58   2.0000      -0.441696       -12.0192
  59   2.0000      -0.438406       -11.9296
  60   2.0000      -0.434476       -11.8227
  61   2.0000      -0.397170       -10.8075
  62   2.0000      -0.394529       -10.7357
  63   2.0000      -0.391209       -10.6453
  64   2.0000      -0.331083        -9.0092
  65   0.0000       0.127253         3.4627
  66   0.0000       0.142196         3.8694
  67   0.0000       0.147803         4.0219
  68   0.0000       0.157862         4.2956
  69   0.0000       0.169890         4.6230

MULLIKEN ATOMIC CHARGES
-----------------------
   0 C :   -0.238817
   1 C :   -0.074458
   2 C :   -0.227433
   3 C :   -0.071323
   4 C :   -0.243164
   5 C :   -0.062952
   6 C :   -0.229413
   7 C :   -0.102674
   8 C :   -0.239538
   9 C :   -0.136466
  10 C :   -0.013480
  11 C :   -0.230147
  12 C :   -0.200888
  13 C :   -0.201062
  14 C :   -0.115059
  15 N :   -0.251303
  16 C :   -0.202931
  17 H :    0.119639
  18 H :    0.119337
  19 H :    0.107121
  20 H :    0.092359
  21 H :    0.114391
  22 H :    0.109025
  23 H :    0.091806
  24 H :    0.095713
  25 H :    0.108459
  26 H :    0.065771
  27 H :    0.095807
  28 H :    0.093013
  29 H :    0.103022
  30 H :    0.102563
  31 H :    0.107348
  32 H :    0.108611
  33 H :    0.109075
  34 H :    0.107502
  35 H :    0.103176
  36 H :    0.102625
  37 H :    0.110341
  38 H :    0.107177
  39 H :    0.126764
  40 H :    0.117372
  41 H :    0.101828
  42 H :    0.101399
  43 H :    0.119865
Sum of atomic charges:    0.0000000

LOEWDIN ATOMIC CHARGES
----------------------
   0 C :    0.070971
   1 C :    0.001539
   2 C :    0.070661
   3 C :    0.002340
   4 C :    0.073862
   5 C :    0.013796
   6 C :    0.072572
   7 C :    0.013200
   8 C :    0.072166
   9 C :    0.013525
  10 C :   -0.061041
  11 C :    0.063473
  12 C :    0.056850
  13 C :    0.052770
  14 C :   -0.014563
  15 N :    0.258694
  16 C :    0.030470
  17 H :   -0.030070
  18 H :   -0.030476
  19 H :   -0.027092
  20 H :   -0.029975
  21 H :   -0.027716
  22 H :   -0.027347
  23 H :   -0.030450
  24 H :   -0.029409
  25 H :   -0.027666
  26 H :   -0.049390
  27 H :   -0.031179
  28 H :   -0.032631
  29 H :   -0.026691
  30 H :   -0.027366
  31 H :   -0.028096
  32 H :   -0.025832
  33 H :   -0.030229
  34 H :   -0.028042
  35 H :   -0.027217
  36 H :   -0.026493
  37 H :   -0.029010
  38 H :   -0.025561
  39 H :   -0.029139
  40 H :   -0.029510
  41 H :   -0.026460
  42 H :   -0.027662
  43 H :   -0.030575

  Mayer bond orders larger than 0.1
B(  0-C ,  1-C ) :   0.9411 B(  0-C ,  5-C ) :   0.9445 B(  0-C , 41-H ) :   1.0014
B(  0-C , 42-H ) :   1.0002 B(  1-C ,  2-C ) :   0.9415 B(  1-C ,  6-C ) :   0.9441
B(  1-C , 34-H ) :   1.0012 B(  2-C ,  3-C ) :   0.9430 B(  2-C , 29-H ) :   0.9983
B(  2-C , 30-H ) :   0.9987 B(  3-C ,  4-C ) :   0.9414 B(  3-C ,  8-C ) :   0.9406
B(  3-C , 31-H ) :   1.0021 B(  4-C ,  5-C ) :   0.9407 B(  4-C , 37-H ) :   0.9959
B(  4-C , 38-H ) :   0.9979 B(  5-C ,  9-C ) :   0.9456 B(  5-C , 39-H ) :   0.9841
B(  6-C ,  7-C ) :   0.9514 B(  6-C , 35-H ) :   0.9989 B(  6-C , 36-H ) :   1.0004
B(  7-C ,  8-C ) :   0.9386 B(  7-C ,  9-C ) :   0.9630 B(  7-C , 43-H ) :   0.9951
B(  8-C , 32-H ) :   0.9981 B(  8-C , 33-H ) :   0.9950 B(  9-C , 10-C ) :   0.9945
B(  9-C , 40-H ) :   0.9848 B( 10-C , 11-C ) :   0.9690 B( 10-C , 15-N ) :   0.9624
B( 10-C , 17-H ) :   0.9834 B( 11-C , 12-C ) :   0.9438 B( 11-C , 18-H ) :   0.9870
B( 11-C , 19-H ) :   0.9889 B( 12-C , 13-C ) :   0.9430 B( 12-C , 20-H ) :   0.9827
B( 12-C , 21-H ) :   0.9946 B( 13-C , 14-C ) :   0.9482 B( 13-C , 22-H ) :   0.9908
B( 13-C , 23-H ) :   0.9836 B( 14-C , 15-N ) :   0.9851 B( 14-C , 24-H ) :   0.9853
B( 14-C , 25-H ) :   0.9944 B( 15-N , 16-C ) :   0.9940 B( 16-C , 26-H ) :   0.9658
B( 16-C , 27-H ) :   0.9858 B( 16-C , 28-H ) :   0.9835

E(0)                                       ...   -676.279212652
E(0)                                       ...   -676.279212652
E(CORR)(strong-pairs)                      ...     -3.070508525
E(CORR)(weak-pairs)                        ...     -0.005815922
E(CORR)(corrected)                         ...     -3.076324447
E(TOT)                                     ...   -679.355537099
E(CCSD(T))                                 ...   -679.488520571
FINAL SINGLE POINT ENERGY      -679.488520571315

DIPOLE MOMENT
-------------
                                X             Y             Z
Electronic contribution:      3.50476       0.33629       0.77621
Nuclear contribution   :     -3.76330      -0.48071      -0.90198
                        -----------------------------------------
Total Dipole Moment    :     -0.25854      -0.14442      -0.12576
                        -----------------------------------------
Magnitude (a.u.)       :      0.32174
Magnitude (Debye)      :      0.81781

Rotational constants in cm-1:     0.031632     0.011098     0.010516
Rotational constants in MHz :   948.293145   332.707446   315.276498

                             ****ORCA TERMINATED NORMALLY****
TOTAL RUN TIME: 0 days 5 hours 28 minutes 47 seconds 939 msec
