                         Program Version 4.1.x  -  STABLE  -
|  1> ! RHF DLPNO-CCSD(T) cc-pVTZ RIJK cc-pVTZ/JK cc-pVTZ/C
|  2> ! KDIIS SOSCF TightSCF TightPNO
|  3>
|  4> %pal nprocs 8 end
|  5>
|  6> %maxcore 8000
|  7>
|  8> %scf maxiter 300
|  9>      shift shift 0.2 erroff 0.1 end
| 10> end
| 11>
| 12> * xyzfile 0 1 2_3_dimethyl_butane_a.xyz
| 13>
| 14>
| 15>                          ****END OF INPUT****

CARTESIAN COORDINATES (ANGSTROEM)
---------------------------------
  C      1.518460    1.255450   -0.053880
  C      0.709300   -0.000080    0.317800
  C      1.518660   -1.255410   -0.054150
  C     -0.709300   -0.000080   -0.317800
  C     -1.518440    1.255470    0.053880
  C     -1.518680   -1.255400    0.054150
  H      2.525390    1.205960    0.375420
  H      1.628300    1.340590   -1.143050
  H      1.053640    2.176330    0.309010
  H      0.572930   -0.000200    1.411440
  H     -0.572920   -0.000180   -1.411440
  H     -2.525670   -1.205720   -0.375010
  H     -1.054110   -2.176420   -0.308690
  H     -1.628370   -1.340390    1.143340
  H      1.054090   -2.176430    0.308700
  H      1.628380   -1.340390   -1.143340
  H      2.525660   -1.205730    0.375010
  H     -2.525390    1.205960   -0.375410
  H     -1.628290    1.340600    1.143050
  H     -1.053620    2.176340   -0.309010

 Total Charge           Charge          ....    0
 Multiplicity           Mult            ....    1
 Number of Electrons    NEL             ....   50
 Basis Dimension        Dim             ....  376

ORBITAL ENERGIES
----------------

  NO   OCC          E(Eh)            E(eV)
   0   2.0000     -11.224811      -305.4426
   1   2.0000     -11.224252      -305.4274
   2   2.0000     -11.208650      -305.0029
   3   2.0000     -11.208644      -305.0027
   4   2.0000     -11.208625      -305.0022
   5   2.0000     -11.208624      -305.0022
   6   2.0000      -1.096646       -29.8413
   7   2.0000      -1.008065       -27.4308
   8   2.0000      -0.935699       -25.4617
   9   2.0000      -0.907951       -24.7066
  10   2.0000      -0.828893       -22.5553
  11   2.0000      -0.747126       -20.3303
  12   2.0000      -0.621566       -16.9137
  13   2.0000      -0.617708       -16.8087
  14   2.0000      -0.588211       -16.0060
  15   2.0000      -0.575478       -15.6596
  16   2.0000      -0.542680       -14.7671
  17   2.0000      -0.536668       -14.6035
  18   2.0000      -0.525084       -14.2883
  19   2.0000      -0.507592       -13.8123
  20   2.0000      -0.496875       -13.5206
  21   2.0000      -0.479038       -13.0353
  22   2.0000      -0.451165       -12.2768
  23   2.0000      -0.442557       -12.0426
  24   2.0000      -0.435884       -11.8610
  25   0.0000       0.140928         3.8349
  26   0.0000       0.162602         4.4246
  27   0.0000       0.166040         4.5182
  28   0.0000       0.169115         4.6018
  29   0.0000       0.197750         5.3811

MULLIKEN ATOMIC CHARGES
-----------------------
   0 C :   -0.313420
   1 C :   -0.052990
   2 C :   -0.313405
   3 C :   -0.052992
   4 C :   -0.313416
   5 C :   -0.313408
   6 H :    0.101175
   7 H :    0.088752
   8 H :    0.101957
   9 H :    0.096055
  10 H :    0.096054
  11 H :    0.101169
  12 H :    0.101961
  13 H :    0.088754
  14 H :    0.101960
  15 H :    0.088753
  16 H :    0.101163
  17 H :    0.101165
  18 H :    0.088751
  19 H :    0.101963
Sum of atomic charges:   -0.0000000

LOEWDIN ATOMIC CHARGES
----------------------
   0 C :    0.111445
   1 C :   -0.018408
   2 C :    0.111445
   3 C :   -0.018405
   4 C :    0.111444
   5 C :    0.111450
   6 H :   -0.028583
   7 H :   -0.028521
   8 H :   -0.032431
   9 H :   -0.025416
  10 H :   -0.025416
  11 H :   -0.028576
  12 H :   -0.032434
  13 H :   -0.028525
  14 H :   -0.032434
  15 H :   -0.028526
  16 H :   -0.028573
  17 H :   -0.028577
  18 H :   -0.028522
  19 H :   -0.032436

  Mayer bond orders larger than 0.1
B(  0-C ,  1-C ) :   0.9521 B(  0-C ,  6-H ) :   0.9888 B(  0-C ,  7-H ) :   0.9783
B(  0-C ,  8-H ) :   0.9865 B(  1-C ,  2-C ) :   0.9521 B(  1-C ,  3-C ) :   0.9634
B(  1-C ,  9-H ) :   0.9747 B(  2-C , 14-H ) :   0.9865 B(  2-C , 15-H ) :   0.9783
B(  2-C , 16-H ) :   0.9888 B(  3-C ,  4-C ) :   0.9521 B(  3-C ,  5-C ) :   0.9521
B(  3-C , 10-H ) :   0.9747 B(  4-C , 17-H ) :   0.9888 B(  4-C , 18-H ) :   0.9783
B(  4-C , 19-H ) :   0.9865 B(  5-C , 11-H ) :   0.9888 B(  5-C , 12-H ) :   0.9865
B(  5-C , 13-H ) :   0.9783

E(0)                                       ...   -235.444825030
E(0)                                       ...   -235.444825030
E(CORR)(strong-pairs)                      ...     -1.144029008
E(CORR)(weak-pairs)                        ...     -0.001055849
E(CORR)(corrected)                         ...     -1.145084857
E(TOT)                                     ...   -236.589909887
E(CCSD(T))                                 ...   -236.633436462
FINAL SINGLE POINT ENERGY      -236.633436461719

DIPOLE MOMENT
-------------
                                X             Y             Z
Electronic contribution:     -0.00001      -0.00034      -0.00001
Nuclear contribution   :      0.00002       0.00034       0.00002
                        -----------------------------------------
Total Dipole Moment    :      0.00001       0.00000       0.00000
                        -----------------------------------------
Magnitude (a.u.)       :      0.00001
Magnitude (Debye)      :      0.00002

Rotational constants in cm-1:     0.139632     0.095118     0.061896
Rotational constants in MHz :  4186.053620  2851.573996  1855.582088

                             ****ORCA TERMINATED NORMALLY****
TOTAL RUN TIME: 0 days 0 hours 7 minutes 9 seconds 679 msec
