                         Program Version 4.1.x  -  STABLE  -
|  1> ! RHF DLPNO-CCSD(T) cc-pVTZ RIJK cc-pVTZ/JK cc-pVTZ/C
|  2> ! KDIIS SOSCF TightSCF TightPNO
|  3>
|  4> %pal nprocs 8 end
|  5>
|  6> %maxcore 8000
|  7>
|  8> %scf maxiter 300
|  9>      shift shift 0.2 erroff 0.1 end
| 10> end
| 11>
| 12> * xyzfile 0 1 2_3_dimethyl_butane_g.xyz
| 13>
| 14>
| 15>                          ****END OF INPUT****

CARTESIAN COORDINATES (ANGSTROEM)
---------------------------------
  C      1.810990   -0.748820   -0.546980
  C      0.711950    0.313450   -0.376120
  C      1.006710    1.198050    0.847730
  C     -0.711940   -0.313450   -0.376120
  C     -1.810990    0.748810   -0.547000
  C     -1.006730   -1.198040    0.847740
  H      2.791940   -0.276960   -0.674320
  H      1.877450   -1.407010    0.327030
  H      1.625940   -1.376960   -1.426250
  H      0.753240    0.962730   -1.263930
  H     -0.753220   -0.962760   -1.263920
  H     -1.979360   -1.690740    0.736790
  H     -0.255850   -1.983470    0.982010
  H     -1.044660   -0.608280    1.770950
  H      0.255790    1.983440    0.982000
  H      1.044690    0.608300    1.770950
  H      1.979320    1.690800    0.736770
  H     -2.791910    0.276920   -0.674430
  H     -1.877520    1.406950    0.327040
  H     -1.625890    1.377000   -1.426210

 Total Charge           Charge          ....    0
 Multiplicity           Mult            ....    1
 Number of Electrons    NEL             ....   50
 Basis Dimension        Dim             ....  376

ORBITAL ENERGIES
----------------

  NO   OCC          E(Eh)            E(eV)
   0   2.0000     -11.224004      -305.4207
   1   2.0000     -11.223450      -305.4056
   2   2.0000     -11.208861      -305.0086
   3   2.0000     -11.208858      -305.0085
   4   2.0000     -11.208520      -304.9993
   5   2.0000     -11.208517      -304.9993
   6   2.0000      -1.095988       -29.8234
   7   2.0000      -1.006828       -27.3972
   8   2.0000      -0.928202       -25.2577
   9   2.0000      -0.919015       -25.0077
  10   2.0000      -0.833324       -22.6759
  11   2.0000      -0.732527       -19.9331
  12   2.0000      -0.636386       -17.3169
  13   2.0000      -0.605545       -16.4777
  14   2.0000      -0.601794       -16.3756
  15   2.0000      -0.559176       -15.2160
  16   2.0000      -0.548973       -14.9383
  17   2.0000      -0.536830       -14.6079
  18   2.0000      -0.520659       -14.1679
  19   2.0000      -0.520412       -14.1611
  20   2.0000      -0.486647       -13.2423
  21   2.0000      -0.485491       -13.2109
  22   2.0000      -0.445400       -12.1199
  23   2.0000      -0.444728       -12.1017
  24   2.0000      -0.434658       -11.8276
  25   0.0000       0.135051         3.6749
  26   0.0000       0.166068         4.5189
  27   0.0000       0.167961         4.5705
  28   0.0000       0.172927         4.7056
  29   0.0000       0.199331         5.4241

MULLIKEN ATOMIC CHARGES
-----------------------
   0 C :   -0.308842
   1 C :   -0.062999
   2 C :   -0.316610
   3 C :   -0.063000
   4 C :   -0.308845
   5 C :   -0.316611
   6 H :    0.102002
   7 H :    0.089290
   8 H :    0.096788
   9 H :    0.100542
  10 H :    0.100536
  11 H :    0.106299
  12 H :    0.102351
  13 H :    0.091182
  14 H :    0.102352
  15 H :    0.091180
  16 H :    0.106297
  17 H :    0.102004
  18 H :    0.089290
  19 H :    0.096792
Sum of atomic charges:   -0.0000000

LOEWDIN ATOMIC CHARGES
----------------------
   0 C :    0.110917
   1 C :   -0.019132
   2 C :    0.111053
   3 C :   -0.019128
   4 C :    0.110920
   5 C :    0.111055
   6 H :   -0.028582
   7 H :   -0.032272
   8 H :   -0.029358
   9 H :   -0.022788
  10 H :   -0.022785
  11 H :   -0.027854
  12 H :   -0.031145
  13 H :   -0.030843
  14 H :   -0.031145
  15 H :   -0.030841
  16 H :   -0.027852
  17 H :   -0.028583
  18 H :   -0.032273
  19 H :   -0.029363

  Mayer bond orders larger than 0.1
B(  0-C ,  1-C ) :   0.9549 B(  0-C ,  6-H ) :   0.9871 B(  0-C ,  7-H ) :   0.9800
B(  0-C ,  8-H ) :   0.9859 B(  1-C ,  2-C ) :   0.9427 B(  1-C ,  3-C ) :   0.9550
B(  1-C ,  9-H ) :   0.9873 B(  2-C , 14-H ) :   0.9850 B(  2-C , 15-H ) :   0.9791
B(  2-C , 16-H ) :   0.9863 B(  3-C ,  4-C ) :   0.9549 B(  3-C ,  5-C ) :   0.9427
B(  3-C , 10-H ) :   0.9873 B(  4-C , 17-H ) :   0.9871 B(  4-C , 18-H ) :   0.9800
B(  4-C , 19-H ) :   0.9859 B(  5-C , 11-H ) :   0.9863 B(  5-C , 12-H ) :   0.9850
B(  5-C , 13-H ) :   0.9791

E(0)                                       ...   -235.444938823
E(0)                                       ...   -235.444938823
E(CORR)(strong-pairs)                      ...     -1.143781464
E(CORR)(weak-pairs)                        ...     -0.001062565
E(CORR)(corrected)                         ...     -1.144844029
E(TOT)                                     ...   -236.589782852
E(CCSD(T))                                 ...   -236.633244983
FINAL SINGLE POINT ENERGY      -236.633244983012

DIPOLE MOMENT
-------------
                                X             Y             Z
Electronic contribution:      0.00001       0.00004      -1.03702
Nuclear contribution   :     -0.00001      -0.00003       0.98557
                        -----------------------------------------
Total Dipole Moment    :     -0.00000       0.00000      -0.05145
                        -----------------------------------------
Magnitude (a.u.)       :      0.05145
Magnitude (Debye)      :      0.13077

Rotational constants in cm-1:     0.140210     0.084080     0.073481
Rotational constants in MHz :  4203.402333  2520.657777  2202.890449

                             ****ORCA TERMINATED NORMALLY****
TOTAL RUN TIME: 0 days 0 hours 7 minutes 41 seconds 384 msec
