                         Program Version 4.1.x  -  STABLE  -
|  1> ! RHF DLPNO-CCSD(T) cc-pVTZ RIJK cc-pVTZ/JK cc-pVTZ/C
|  2> ! KDIIS SOSCF TightSCF TightPNO
|  3>
|  4> %pal nprocs 8 end
|  5>
|  6> %maxcore 8000
|  7>
|  8> %scf maxiter 300
|  9>      shift shift 0.2 erroff 0.1 end
| 10> end
| 11>
| 12> * xyzfile 0 1 2_5_dimethyl_1_3_dioxane_eq_ax.xyz
| 13>
| 14>
| 15>                          ****END OF INPUT****

CARTESIAN COORDINATES (ANGSTROEM)
---------------------------------
  C     -1.291500   -0.000030   -0.260240
  O     -0.564980   -1.170780    0.069210
  C      0.684000   -1.237010   -0.624770
  C      1.547420    0.000050   -0.328240
  C      0.683960    1.237070   -0.624690
  O     -0.565030    1.170810    0.069250
  C      2.095130   -0.000060    1.105630
  C     -2.586210   -0.000040    0.520710
  H      1.167230   -2.159930   -0.292470
  H      0.494530   -1.316630   -1.708680
  H      2.389910    0.000120   -1.035220
  H      0.494520    1.316730   -1.708600
  H      1.167190    2.159990   -0.292360
  H     -1.473160   -0.000020   -1.353400
  H     -2.368120   -0.000100    1.592110
  H     -3.169400    0.891410    0.275840
  H     -3.169470   -0.891430    0.275760
  H      1.280770   -0.000230    1.834980
  H      2.714680   -0.885550    1.286830
  H      2.714490    0.885510    1.287090

 Total Charge           Charge          ....    0
 Multiplicity           Mult            ....    1
 Number of Electrons    NEL             ....   64
 Basis Dimension        Dim             ....  408

ORBITAL ENERGIES
----------------

  NO   OCC          E(Eh)            E(eV)
   0   2.0000     -20.555463      -559.3426
   1   2.0000     -20.555442      -559.3420
   2   2.0000     -11.329125      -308.2812
   3   2.0000     -11.278205      -306.8956
   4   2.0000     -11.278198      -306.8954
   5   2.0000     -11.234821      -305.7150
   6   2.0000     -11.213565      -305.1366
   7   2.0000     -11.212193      -305.0993
   8   2.0000      -1.413080       -38.4519
   9   2.0000      -1.335122       -36.3305
  10   2.0000      -1.088131       -29.6095
  11   2.0000      -1.001343       -27.2479
  12   2.0000      -0.921477       -25.0747
  13   2.0000      -0.914354       -24.8808
  14   2.0000      -0.840088       -22.8599
  15   2.0000      -0.767120       -20.8744
  16   2.0000      -0.678660       -18.4673
  17   2.0000      -0.668569       -18.1927
  18   2.0000      -0.649770       -17.6812
  19   2.0000      -0.628864       -17.1122
  20   2.0000      -0.628405       -17.0998
  21   2.0000      -0.570374       -15.5207
  22   2.0000      -0.562900       -15.3173
  23   2.0000      -0.533685       -14.5223
  24   2.0000      -0.533535       -14.5182
  25   2.0000      -0.524033       -14.2597
  26   2.0000      -0.516174       -14.0458
  27   2.0000      -0.487847       -13.2750
  28   2.0000      -0.476844       -12.9756
  29   2.0000      -0.460738       -12.5373
  30   2.0000      -0.426103       -11.5948
  31   2.0000      -0.415591       -11.3088
  32   0.0000       0.135425         3.6851
  33   0.0000       0.161538         4.3957
  34   0.0000       0.163233         4.4418
  35   0.0000       0.179317         4.8795
  36   0.0000       0.191997         5.2245

MULLIKEN ATOMIC CHARGES
-----------------------
   0 C :    0.316873
   1 O :   -0.399597
   2 C :    0.008011
   3 C :   -0.095575
   4 C :    0.008021
   5 O :   -0.399618
   6 C :   -0.301215
   7 C :   -0.261051
   8 H :    0.102729
   9 H :    0.085501
  10 H :    0.109162
  11 H :    0.085490
  12 H :    0.102721
  13 H :    0.053345
  14 H :    0.099696
  15 H :    0.092952
  16 H :    0.092945
  17 H :    0.113635
  18 H :    0.092987
  19 H :    0.092987
Sum of atomic charges:   -0.0000000

LOEWDIN ATOMIC CHARGES
----------------------
   0 C :   -0.277976
   1 O :    0.252469
   2 C :   -0.042418
   3 C :   -0.033714
   4 C :   -0.042450
   5 O :    0.252428
   6 C :    0.114954
   7 C :    0.113193
   8 H :   -0.025774
   9 H :   -0.035263
  10 H :   -0.019131
  11 H :   -0.035263
  12 H :   -0.025770
  13 H :   -0.043089
  14 H :   -0.022179
  15 H :   -0.024086
  16 H :   -0.024085
  17 H :   -0.024078
  18 H :   -0.028884
  19 H :   -0.028885

  Mayer bond orders larger than 0.1
B(  0-C ,  1-O ) :   1.0095 B(  0-C ,  5-O ) :   1.0094 B(  0-C ,  7-C ) :   0.9657
B(  0-C , 13-H ) :   0.9800 B(  1-O ,  2-C ) :   0.9768 B(  2-C ,  3-C ) :   0.9419
B(  2-C ,  8-H ) :   0.9910 B(  2-C ,  9-H ) :   0.9931 B(  3-C ,  4-C ) :   0.9419
B(  3-C ,  6-C ) :   0.9478 B(  3-C , 10-H ) :   0.9806 B(  4-C ,  5-O ) :   0.9768
B(  4-C , 11-H ) :   0.9931 B(  4-C , 12-H ) :   0.9910 B(  6-C , 17-H ) :   0.9725
B(  6-C , 18-H ) :   0.9867 B(  6-C , 19-H ) :   0.9867 B(  7-C , 14-H ) :   0.9788
B(  7-C , 15-H ) :   0.9793 B(  7-C , 16-H ) :   0.9793

E(0)                                       ...   -384.048992554
E(0)                                       ...   -384.048992554
E(CORR)(strong-pairs)                      ...     -1.559755926
E(CORR)(weak-pairs)                        ...     -0.001658699
E(CORR)(corrected)                         ...     -1.561414625
E(TOT)                                     ...   -385.610407180
E(CCSD(T))                                 ...   -385.671815727
FINAL SINGLE POINT ENERGY      -385.671815727175

DIPOLE MOMENT
-------------
                                X             Y             Z
Electronic contribution:     -1.84695       0.00005      -0.79969
Nuclear contribution   :      2.30271      -0.00013       0.16977
                        -----------------------------------------
Total Dipole Moment    :      0.45576      -0.00008      -0.62992
                        -----------------------------------------
Magnitude (a.u.)       :      0.77751
Magnitude (Debye)      :      1.97626

Rotational constants in cm-1:     0.116499     0.055296     0.047678
Rotational constants in MHz :  3492.551944  1657.725339  1429.356543

                             ****ORCA TERMINATED NORMALLY****
TOTAL RUN TIME: 0 days 0 hours 17 minutes 35 seconds 6 msec
