                         Program Version 4.1.x  -  STABLE  -
|  1> ! RHF DLPNO-CCSD(T) cc-pVTZ RIJK cc-pVTZ/JK cc-pVTZ/C
|  2> ! KDIIS SOSCF TightSCF TightPNO
|  3>
|  4> %pal nprocs 8 end
|  5>
|  6> %maxcore 8000
|  7>
|  8> %scf maxiter 300
|  9>      shift shift 0.2 erroff 0.1 end
| 10> end
| 11>
| 12> * xyzfile 0 1 2_5_dimethyl_1_3_dioxane_eq_eq.xyz
| 13>
| 14>
| 15>                          ****END OF INPUT****

CARTESIAN COORDINATES (ANGSTROEM)
---------------------------------
  C     -0.640660   -1.239310    0.135630
  C     -1.389310   -0.000010   -0.370380
  C     -0.640650    1.239300    0.135630
  O      0.748590    1.171070   -0.188650
  C      1.358470   -0.000060    0.324820
  O      0.748600   -1.171030   -0.188660
  C     -2.857980    0.000000    0.062760
  C      2.815880    0.000010   -0.077560
  H     -0.760790    1.330400    1.229980
  H     -1.018280    2.156350   -0.325450
  H     -1.330650   -0.000020   -1.466530
  H      1.237850    0.000010    1.426090
  H     -0.760750   -1.330420    1.229980
  H     -1.018240   -2.156380   -0.325460
  H      2.894630    0.000050   -1.168020
  H      3.311030    0.891420    0.315990
  H      3.311120   -0.891370    0.315940
  H     -2.953540    0.000010    1.155540
  H     -3.382180    0.883830   -0.317450
  H     -3.382190   -0.883810   -0.317460

 Total Charge           Charge          ....    0
 Multiplicity           Mult            ....    1
 Number of Electrons    NEL             ....   64
 Basis Dimension        Dim             ....  408

ORBITAL ENERGIES
----------------

  NO   OCC          E(Eh)            E(eV)
   0   2.0000     -20.555275      -559.3375
   1   2.0000     -20.555248      -559.3367
   2   2.0000     -11.328781      -308.2718
   3   2.0000     -11.277829      -306.8853
   4   2.0000     -11.277817      -306.8850
   5   2.0000     -11.233396      -305.6762
   6   2.0000     -11.226756      -305.4956
   7   2.0000     -11.211634      -305.0841
   8   2.0000      -1.412855       -38.4457
   9   2.0000      -1.335231       -36.3335
  10   2.0000      -1.092120       -29.7181
  11   2.0000      -1.006067       -27.3765
  12   2.0000      -0.918591       -24.9961
  13   2.0000      -0.915413       -24.9096
  14   2.0000      -0.834609       -22.7109
  15   2.0000      -0.785899       -21.3854
  16   2.0000      -0.674221       -18.3465
  17   2.0000      -0.672325       -18.2949
  18   2.0000      -0.660541       -17.9742
  19   2.0000      -0.623419       -16.9641
  20   2.0000      -0.611217       -16.6321
  21   2.0000      -0.572911       -15.5897
  22   2.0000      -0.572319       -15.5736
  23   2.0000      -0.538715       -14.6592
  24   2.0000      -0.530374       -14.4322
  25   2.0000      -0.527653       -14.3582
  26   2.0000      -0.525743       -14.3062
  27   2.0000      -0.488624       -13.2961
  28   2.0000      -0.476708       -12.9719
  29   2.0000      -0.463078       -12.6010
  30   2.0000      -0.426503       -11.6057
  31   2.0000      -0.415740       -11.3128
  32   0.0000       0.137808         3.7499
  33   0.0000       0.155610         4.2344
  34   0.0000       0.165024         4.4905
  35   0.0000       0.175481         4.7751
  36   0.0000       0.186335         5.0704

MULLIKEN ATOMIC CHARGES
-----------------------
   0 C :    0.018492
   1 C :   -0.085005
   2 C :    0.018506
   3 O :   -0.390146
   4 C :    0.317923
   5 O :   -0.390093
   6 C :   -0.316325
   7 C :   -0.260601
   8 H :    0.065591
   9 H :    0.110559
  10 H :    0.104350
  11 H :    0.046862
  12 H :    0.065609
  13 H :    0.110567
  14 H :    0.099084
  15 H :    0.092699
  16 H :    0.092695
  17 H :    0.090562
  18 H :    0.104334
  19 H :    0.104336
Sum of atomic charges:    0.0000000

LOEWDIN ATOMIC CHARGES
----------------------
   0 C :   -0.045721
   1 C :   -0.035258
   2 C :   -0.045769
   3 O :    0.254044
   4 C :   -0.275878
   5 O :    0.254133
   6 C :    0.115090
   7 C :    0.113106
   8 H :   -0.035947
   9 H :   -0.025671
  10 H :   -0.019574
  11 H :   -0.044243
  12 H :   -0.035943
  13 H :   -0.025665
  14 H :   -0.021973
  15 H :   -0.024215
  16 H :   -0.024221
  17 H :   -0.027774
  18 H :   -0.024256
  19 H :   -0.024262

  Mayer bond orders larger than 0.1
B(  0-C ,  1-C ) :   0.9577 B(  0-C ,  5-O ) :   0.9952 B(  0-C , 12-H ) :   0.9812
B(  0-C , 13-H ) :   0.9860 B(  1-C ,  2-C ) :   0.9576 B(  1-C ,  6-C ) :   0.9504
B(  1-C , 10-H ) :   0.9673 B(  2-C ,  3-O ) :   0.9953 B(  2-C ,  8-H ) :   0.9812
B(  2-C ,  9-H ) :   0.9860 B(  3-O ,  4-C ) :   1.0112 B(  4-C ,  5-O ) :   1.0113
B(  4-C ,  7-C ) :   0.9665 B(  4-C , 11-H ) :   0.9797 B(  6-C , 17-H ) :   0.9775
B(  6-C , 18-H ) :   0.9826 B(  6-C , 19-H ) :   0.9826 B(  7-C , 14-H ) :   0.9782
B(  7-C , 15-H ) :   0.9792 B(  7-C , 16-H ) :   0.9792

E(0)                                       ...   -384.050669307
E(0)                                       ...   -384.050669307
E(CORR)(strong-pairs)                      ...     -1.559038981
E(CORR)(weak-pairs)                        ...     -0.001665476
E(CORR)(corrected)                         ...     -1.560704458
E(TOT)                                     ...   -385.611373764
E(CCSD(T))                                 ...   -385.672690165
FINAL SINGLE POINT ENERGY      -385.672690165164

DIPOLE MOMENT
-------------
                                X             Y             Z
Electronic contribution:      3.30615      -0.00028      -1.35414
Nuclear contribution   :     -3.96143       0.00008       1.80791
                        -----------------------------------------
Total Dipole Moment    :     -0.65529      -0.00020       0.45377
                        -----------------------------------------
Magnitude (a.u.)       :      0.79706
Magnitude (Debye)      :      2.02597

Rotational constants in cm-1:     0.150393     0.048090     0.039000
Rotational constants in MHz :  4508.657251  1441.699594  1169.202815

                             ****ORCA TERMINATED NORMALLY****
TOTAL RUN TIME: 0 days 0 hours 16 minutes 41 seconds 704 msec
