                         Program Version 4.1.x  -  STABLE  -
|  1> ! RHF DLPNO-CCSD(T) cc-pVTZ RIJK cc-pVTZ/JK cc-pVTZ/C
|  2> ! KDIIS SOSCF TightSCF TightPNO
|  3>
|  4> %pal nprocs 8 end
|  5>
|  6> %maxcore 8000
|  7>
|  8> %scf maxiter 300
|  9>      shift shift 0.2 erroff 0.1 end
| 10> end
| 11>
| 12> * xyzfile 0 1 2_butanone_skew.xyz
| 13>
| 14>
| 15>                          ****END OF INPUT****

CARTESIAN COORDINATES (ANGSTROEM)
---------------------------------
  C     -1.031460    1.262650    0.071760
  C     -0.620150   -0.199880    0.054230
  O     -1.405760   -1.070470   -0.282540
  C      0.804810   -0.541750    0.472010
  C      1.891790    0.212890   -0.313450
  H     -2.118230    1.338460    0.008540
  H     -0.667580    1.771960    0.970910
  H     -0.592840    1.779190   -0.790750
  H      0.901820   -0.305590    1.541650
  H      0.923800   -1.623100    0.360940
  H      1.812210    0.015270   -1.387810
  H      1.831550    1.295220   -0.161480
  H      2.885400   -0.111140    0.010960

 Total Charge           Charge          ....    0
 Multiplicity           Mult            ....    1
 Number of Electrons    NEL             ....   40
 Basis Dimension        Dim             ....  262

ORBITAL ENERGIES
----------------

  NO   OCC          E(Eh)            E(eV)
   0   2.0000     -20.540435      -558.9337
   1   2.0000     -11.329175      -308.2825
   2   2.0000     -11.240304      -305.8642
   3   2.0000     -11.235266      -305.7271
   4   2.0000     -11.235173      -305.7246
   5   2.0000      -1.376978       -37.4695
   6   2.0000      -1.066312       -29.0158
   7   2.0000      -0.992335       -27.0028
   8   2.0000      -0.887091       -24.1390
   9   2.0000      -0.733547       -19.9608
  10   2.0000      -0.648334       -17.6421
  11   2.0000      -0.645080       -17.5535
  12   2.0000      -0.611069       -16.6280
  13   2.0000      -0.588019       -16.0008
  14   2.0000      -0.559298       -15.2193
  15   2.0000      -0.541263       -14.7285
  16   2.0000      -0.526938       -14.3387
  17   2.0000      -0.503879       -13.7112
  18   2.0000      -0.478185       -13.0121
  19   2.0000      -0.406440       -11.0598
  20   0.0000       0.123422         3.3585
  21   0.0000       0.149028         4.0553
  22   0.0000       0.167931         4.5696
  23   0.0000       0.178934         4.8690
  24   0.0000       0.194820         5.3013

MULLIKEN ATOMIC CHARGES
-----------------------
   0 C :   -0.311121
   1 C :    0.291856
   2 O :   -0.363182
   3 C :   -0.186731
   4 C :   -0.305018
   5 H :    0.134813
   6 H :    0.100431
   7 H :    0.104232
   8 H :    0.099068
   9 H :    0.124665
  10 H :    0.104898
  11 H :    0.092623
  12 H :    0.113468
Sum of atomic charges:   -0.0000000

LOEWDIN ATOMIC CHARGES
----------------------
   0 C :    0.109586
   1 C :   -0.232431
   2 O :    0.128820
   3 C :    0.047880
   4 C :    0.112722
   5 H :   -0.015928
   6 H :   -0.021068
   7 H :   -0.016836
   8 H :   -0.017556
   9 H :   -0.015113
  10 H :   -0.025484
  11 H :   -0.030839
  12 H :   -0.023754

  Mayer bond orders larger than 0.1
B(  0-C ,  1-C ) :   0.9323 B(  0-C ,  5-H ) :   0.9791 B(  0-C ,  6-H ) :   0.9686
B(  0-C ,  7-H ) :   0.9623 B(  1-C ,  2-O ) :   2.0987 B(  1-C ,  3-C ) :   0.9440
B(  3-C ,  4-C ) :   0.9370 B(  3-C ,  8-H ) :   0.9679 B(  3-C ,  9-H ) :   0.9792
B(  4-C , 10-H ) :   0.9772 B(  4-C , 11-H ) :   0.9777 B(  4-C , 12-H ) :   0.9816

E(0)                                       ...   -231.078266387
E(0)                                       ...   -231.078266387
E(CORR)(strong-pairs)                      ...     -0.956194709
E(CORR)(weak-pairs)                        ...     -0.000699081
E(CORR)(corrected)                         ...     -0.956893790
E(TOT)                                     ...   -232.035160178
E(CCSD(T))                                 ...   -232.073008508
FINAL SINGLE POINT ENERGY      -232.073008507857

DIPOLE MOMENT
-------------
                                X             Y             Z
Electronic contribution:     -4.25698      -3.38713      -0.24033
Nuclear contribution   :      5.16117       4.31670       0.57146
                        -----------------------------------------
Total Dipole Moment    :      0.90419       0.92957       0.33113
                        -----------------------------------------
Magnitude (a.u.)       :      1.33840
Magnitude (Debye)      :      3.40194

Rotational constants in cm-1:     0.257734     0.126644     0.095795
Rotational constants in MHz :  7726.667357  3796.677293  2871.858554

                             ****ORCA TERMINATED NORMALLY****
TOTAL RUN TIME: 0 days 0 hours 3 minutes 19 seconds 495 msec
