                         Program Version 4.1.x  -  STABLE  -
|  1> ! RHF DLPNO-CCSD(T) cc-pVTZ RIJK cc-pVTZ/JK cc-pVTZ/C
|  2> ! KDIIS SOSCF TightSCF TightPNO
|  3>
|  4> %pal nprocs 8 end
|  5>
|  6> %maxcore 8000
|  7>
|  8> %scf maxiter 300
|  9>      shift shift 0.2 erroff 0.1 end
| 10> end
| 11>
| 12> * xyzfile 0 1 2_butanone_ecl.xyz
| 13>
| 14>
| 15>                          ****END OF INPUT****

CARTESIAN COORDINATES (ANGSTROEM)
---------------------------------
  C      1.891990   -0.505910    0.000180
  C      0.529950    0.166920   -0.000090
  O      0.420200    1.381140   -0.000120
  C     -0.685980   -0.752540   -0.000300
  C     -2.026610   -0.020150    0.000240
  H      2.679790    0.249010   -0.000430
  H      2.000090   -1.149320    0.881500
  H      1.999920   -1.150640   -0.880190
  H     -0.598420   -1.416490   -0.872710
  H     -0.598160   -1.417400    0.871390
  H     -2.854320   -0.736270   -0.000030
  H     -2.123220    0.620570    0.881170
  H     -2.123430    0.621480   -0.880000

 Total Charge           Charge          ....    0
 Multiplicity           Mult            ....    1
 Number of Electrons    NEL             ....   40
 Basis Dimension        Dim             ....  262

ORBITAL ENERGIES
----------------

  NO   OCC          E(Eh)            E(eV)
   0   2.0000     -20.541784      -558.9703
   1   2.0000     -11.329944      -308.3035
   2   2.0000     -11.241476      -305.8961
   3   2.0000     -11.235690      -305.7387
   4   2.0000     -11.218561      -305.2726
   5   2.0000      -1.378959       -37.5234
   6   2.0000      -1.059758       -28.8375
   7   2.0000      -0.998270       -27.1643
   8   2.0000      -0.876309       -23.8456
   9   2.0000      -0.730660       -19.8823
  10   2.0000      -0.653463       -17.7816
  11   2.0000      -0.636227       -17.3126
  12   2.0000      -0.619082       -16.8461
  13   2.0000      -0.579921       -15.7804
  14   2.0000      -0.568065       -15.4578
  15   2.0000      -0.519387       -14.1332
  16   2.0000      -0.512506       -13.9460
  17   2.0000      -0.504904       -13.7391
  18   2.0000      -0.481525       -13.1030
  19   2.0000      -0.409245       -11.1361
  20   0.0000       0.127033         3.4567
  21   0.0000       0.144887         3.9426
  22   0.0000       0.159271         4.3340
  23   0.0000       0.195442         5.3182
  24   0.0000       0.196975         5.3600

MULLIKEN ATOMIC CHARGES
-----------------------
   0 C :   -0.287533
   1 C :    0.276814
   2 O :   -0.360688
   3 C :   -0.190860
   4 C :   -0.273343
   5 H :    0.129114
   6 H :    0.098062
   7 H :    0.098035
   8 H :    0.104034
   9 H :    0.104014
  10 H :    0.096221
  11 H :    0.103049
  12 H :    0.103082
Sum of atomic charges:    0.0000000

LOEWDIN ATOMIC CHARGES
----------------------
   0 C :    0.110495
   1 C :   -0.231816
   2 O :    0.131801
   3 C :    0.036853
   4 C :    0.113728
   5 H :   -0.016529
   6 H :   -0.018527
   7 H :   -0.018539
   8 H :   -0.015575
   9 H :   -0.015581
  10 H :   -0.029843
  11 H :   -0.023236
  12 H :   -0.023230

  Mayer bond orders larger than 0.1
B(  0-C ,  1-C ) :   0.9587 B(  0-C ,  5-H ) :   0.9796 B(  0-C ,  6-H ) :   0.9671
B(  0-C ,  7-H ) :   0.9671 B(  1-C ,  2-O ) :   2.0939 B(  1-C ,  3-C ) :   0.9323
B(  3-C ,  4-C ) :   0.9641 B(  3-C ,  8-H ) :   0.9669 B(  3-C ,  9-H ) :   0.9669
B(  4-C , 10-H ) :   0.9854 B(  4-C , 11-H ) :   0.9781 B(  4-C , 12-H ) :   0.9781

E(0)                                       ...   -231.080907357
E(0)                                       ...   -231.080907357
E(CORR)(strong-pairs)                      ...     -0.955922523
E(CORR)(weak-pairs)                        ...     -0.000699868
E(CORR)(corrected)                         ...     -0.956622390
E(TOT)                                     ...   -232.037529748
E(CCSD(T))                                 ...   -232.075330157
FINAL SINGLE POINT ENERGY      -232.075330157113

DIPOLE MOMENT
-------------
                                X             Y             Z
Electronic contribution:      1.76724       3.28554      -0.00071
Nuclear contribution   :     -1.67850      -4.53953       0.00074
                        -----------------------------------------
Total Dipole Moment    :      0.08874      -1.25399       0.00004
                        -----------------------------------------
Magnitude (a.u.)       :      1.25713
Magnitude (Debye)      :      3.19536

Rotational constants in cm-1:     0.317134     0.118544     0.090613
Rotational constants in MHz :  9507.438581  3553.858181  2716.496050

                             ****ORCA TERMINATED NORMALLY****
TOTAL RUN TIME: 0 days 0 hours 3 minutes 19 seconds 108 msec
