                         Program Version 4.1.x  -  STABLE  -
|  1> ! RHF DLPNO-CCSD(T) cc-pVTZ RIJK cc-pVTZ/JK cc-pVTZ/C
|  2> ! KDIIS SOSCF TightSCF TightPNO
|  3>
|  4> %pal nprocs 8 end
|  5>
|  6> %maxcore 8000
|  7>
|  8> %scf maxiter 300
|  9>      shift shift 0.2 erroff 0.1 end
| 10> end
| 11>
| 12> * xyzfile 0 1 2_keto_cyclodecanone.xyz
| 13>
| 14>
| 15>                          ****END OF INPUT****

CARTESIAN COORDINATES (ANGSTROEM)
---------------------------------
  C      2.517710    0.769740    0.000420
  C      2.303800   -0.615280   -0.650190
  C      1.742380   -1.761790    0.218230
  C      0.290400   -1.639230    0.731110
  C     -0.781930   -1.457530   -0.367670
  C     -1.994560   -0.576020   -0.056230
  O     -3.094630   -0.896950   -0.481710
  C      1.273480    1.548140    0.481760
  C      0.190100    1.785520   -0.591980
  C     -1.247440    1.927330   -0.055450
  C     -1.839550    0.726180    0.731150
  H      3.201340    0.656160    0.853370
  H      3.054450    1.390700   -0.730770
  H      1.608780    2.518390    0.871300
  H      0.841830    1.031580    1.343540
  H      3.284840   -0.947530   -1.014600
  H      1.695660   -0.507140   -1.556680
  H      0.212860    0.983300   -1.335160
  H      0.433040    2.697550   -1.152540
  H      2.397410   -1.898590    1.089900
  H      1.827260   -2.687780   -0.367500
  H      0.239380   -0.823390    1.453540
  H      0.053250   -2.544990    1.302500
  H     -1.917080    2.149090   -0.895560
  H     -1.297960    2.797090    0.613030
  H     -1.179720   -2.422070   -0.697070
  H     -0.328680   -1.005130   -1.259180
  H     -2.848570    0.997830    1.054120
  H     -1.247360    0.548220    1.634560

 Total Charge           Charge          ....    0
 Multiplicity           Mult            ....    1
 Number of Electrons    NEL             ....   86
 Basis Dimension        Dim             ....  582

ORBITAL ENERGIES
----------------

  NO   OCC          E(Eh)            E(eV)
   0   2.0000     -20.534910      -558.7833
   1   2.0000     -11.324220      -308.1477
   2   2.0000     -11.236435      -305.7590
   3   2.0000     -11.233411      -305.6766
   4   2.0000     -11.233188      -305.6706
   5   2.0000     -11.232448      -305.6505
   6   2.0000     -11.229751      -305.5771
   7   2.0000     -11.227685      -305.5208
   8   2.0000     -11.227424      -305.5137
   9   2.0000     -11.226727      -305.4948
  10   2.0000     -11.225855      -305.4710
  11   2.0000      -1.371441       -37.3188
  12   2.0000      -1.107143       -30.1269
  13   2.0000      -1.071854       -29.1666
  14   2.0000      -1.054507       -28.6946
  15   2.0000      -0.984447       -26.7882
  16   2.0000      -0.960153       -26.1271
  17   2.0000      -0.896918       -24.4064
  18   2.0000      -0.847148       -23.0521
  19   2.0000      -0.798040       -21.7158
  20   2.0000      -0.765316       -20.8253
  21   2.0000      -0.717293       -19.5185
  22   2.0000      -0.666585       -18.1387
  23   2.0000      -0.663853       -18.0644
  24   2.0000      -0.625473       -17.0200
  25   2.0000      -0.615436       -16.7469
  26   2.0000      -0.612828       -16.6759
  27   2.0000      -0.597677       -16.2636
  28   2.0000      -0.583321       -15.8730
  29   2.0000      -0.571296       -15.5458
  30   2.0000      -0.545669       -14.8484
  31   2.0000      -0.540005       -14.6943
  32   2.0000      -0.534298       -14.5390
  33   2.0000      -0.516164       -14.0455
  34   2.0000      -0.502810       -13.6821
  35   2.0000      -0.497811       -13.5461
  36   2.0000      -0.473558       -12.8862
  37   2.0000      -0.472682       -12.8623
  38   2.0000      -0.461525       -12.5587
  39   2.0000      -0.453014       -12.3271
  40   2.0000      -0.446586       -12.1522
  41   2.0000      -0.440709       -11.9923
  42   2.0000      -0.395950       -10.7743
  43   0.0000       0.129539         3.5249
  44   0.0000       0.135662         3.6916
  45   0.0000       0.143813         3.9134
  46   0.0000       0.154294         4.1986
  47   0.0000       0.161974         4.4075

MULLIKEN ATOMIC CHARGES
-----------------------
   0 C :   -0.187278
   1 C :   -0.235864
   2 C :   -0.189709
   3 C :   -0.243670
   4 C :   -0.210976
   5 C :    0.294005
   6 O :   -0.376303
   7 C :   -0.220625
   8 C :   -0.223541
   9 C :   -0.201495
  10 C :   -0.241014
  11 H :    0.103068
  12 H :    0.103459
  13 H :    0.121027
  14 H :    0.095209
  15 H :    0.124282
  16 H :    0.098818
  17 H :    0.099154
  18 H :    0.121740
  19 H :    0.105203
  20 H :    0.107179
  21 H :    0.105131
  22 H :    0.130584
  23 H :    0.120580
  24 H :    0.106332
  25 H :    0.140383
  26 H :    0.103681
  27 H :    0.142262
  28 H :    0.108377
Sum of atomic charges:    0.0000000

LOEWDIN ATOMIC CHARGES
----------------------
   0 C :    0.059207
   1 C :    0.053309
   2 C :    0.059778
   3 C :    0.062837
   4 C :    0.058723
   5 C :   -0.212179
   6 O :    0.125673
   7 C :    0.058785
   8 C :    0.058070
   9 C :    0.066908
  10 C :    0.056019
  11 H :   -0.024866
  12 H :   -0.022910
  13 H :   -0.024060
  14 H :   -0.037196
  15 H :   -0.019651
  16 H :   -0.035749
  17 H :   -0.035106
  18 H :   -0.022410
  19 H :   -0.023648
  20 H :   -0.022269
  21 H :   -0.039072
  22 H :   -0.021611
  23 H :   -0.019373
  24 H :   -0.020932
  25 H :   -0.013685
  26 H :   -0.021462
  27 H :   -0.012117
  28 H :   -0.031013

  Mayer bond orders larger than 0.1
B(  0-C ,  1-C ) :   0.9498 B(  0-C ,  7-C ) :   0.9617 B(  0-C , 11-H ) :   0.9880
B(  0-C , 12-H ) :   0.9899 B(  1-C ,  2-C ) :   0.9494 B(  1-C , 15-H ) :   0.9903
B(  1-C , 16-H ) :   0.9785 B(  2-C ,  3-C ) :   0.9557 B(  2-C , 19-H ) :   0.9869
B(  2-C , 20-H ) :   0.9895 B(  3-C ,  4-C ) :   0.9242 B(  3-C , 21-H ) :   0.9781
B(  3-C , 22-H ) :   0.9868 B(  4-C ,  5-C ) :   0.9617 B(  4-C , 25-H ) :   0.9736
B(  4-C , 26-H ) :   0.9634 B(  5-C ,  6-O ) :   2.0846 B(  5-C , 10-C ) :   0.9320
B(  7-C ,  8-C ) :   0.9391 B(  7-C , 13-H ) :   0.9877 B(  7-C , 14-H ) :   0.9788
B(  8-C ,  9-C ) :   0.9596 B(  8-C , 17-H ) :   0.9784 B(  8-C , 18-H ) :   0.9853
B(  9-C , 10-C ) :   0.9464 B(  9-C , 23-H ) :   0.9832 B(  9-C , 24-H ) :   0.9832
B( 10-C , 27-H ) :   0.9808 B( 10-C , 28-H ) :   0.9696

E(0)                                       ...   -464.170387113
E(0)                                       ...   -464.170387113
E(CORR)(strong-pairs)                      ...     -2.036423128
E(CORR)(weak-pairs)                        ...     -0.002486378
E(CORR)(corrected)                         ...     -2.038909506
E(TOT)                                     ...   -466.209296619
E(CCSD(T))                                 ...   -466.293979725
FINAL SINGLE POINT ENERGY      -466.293979725281

DIPOLE MOMENT
-------------
                                X             Y             Z
Electronic contribution:     -9.11430      -2.62911      -0.85569
Nuclear contribution   :     10.45183       3.05655       1.25565
                        -----------------------------------------
Total Dipole Moment    :      1.33752       0.42744       0.39997
                        -----------------------------------------
Magnitude (a.u.)       :      1.46002
Magnitude (Debye)      :      3.71107

Rotational constants in cm-1:     0.047751     0.029003     0.020382
Rotational constants in MHz :  1431.524333   869.486120   611.026460

                             ****ORCA TERMINATED NORMALLY****
TOTAL RUN TIME: 0 days 0 hours 59 minutes 0 seconds 260 msec
