                         Program Version 4.1.x  -  STABLE  -
|  1> ! RHF DLPNO-CCSD(T) cc-pVTZ RIJK cc-pVTZ/JK cc-pVTZ/C
|  2> ! KDIIS SOSCF TightSCF TightPNO
|  3>
|  4> %pal nprocs 8 end
|  5>
|  6> %maxcore 8000
|  7>
|  8> %scf maxiter 300
|  9>      shift shift 0.2 erroff 0.1 end
| 10> end
| 11>
| 12> * xyzfile 0 1 2_methyl_1_3_butadiene_t.xyz
| 13>
| 14>
| 15>                          ****END OF INPUT****

CARTESIAN COORDINATES (ANGSTROEM)
---------------------------------
  C     -1.590620   -0.912550   -0.000000
  C     -0.516500   -0.099520   -0.000010
  C     -0.662180    1.403480    0.000000
  C      0.834040   -0.678560    0.000000
  C      1.989710    0.005780    0.000000
  H     -2.603420   -0.520930    0.000010
  H     -1.482080   -1.993880    0.000020
  H      0.872960   -1.767500   -0.000000
  H      2.944480   -0.510400   -0.000010
  H      2.024240    1.091160    0.000010
  H     -0.183930    1.846570    0.881800
  H     -0.183930    1.846580   -0.881790
  H     -1.715000    1.696580    0.000010

 Total Charge           Charge          ....    0
 Multiplicity           Mult            ....    1
 Number of Electrons    NEL             ....   38
 Basis Dimension        Dim             ....  262

ORBITAL ENERGIES
----------------

  NO   OCC          E(Eh)            E(eV)
   0   2.0000     -11.245871      -306.0157
   1   2.0000     -11.237614      -305.7910
   2   2.0000     -11.227172      -305.5069
   3   2.0000     -11.223370      -305.4034
   4   2.0000     -11.223036      -305.3943
   5   2.0000      -1.105303       -30.0768
   6   2.0000      -1.005900       -27.3719
   7   2.0000      -0.936834       -25.4926
   8   2.0000      -0.818917       -22.2839
   9   2.0000      -0.714644       -19.4465
  10   2.0000      -0.647658       -17.6237
  11   2.0000      -0.628362       -17.0986
  12   2.0000      -0.571602       -15.5541
  13   2.0000      -0.557242       -15.1633
  14   2.0000      -0.541636       -14.7387
  15   2.0000      -0.520952       -14.1758
  16   2.0000      -0.481410       -13.0998
  17   2.0000      -0.422159       -11.4875
  18   2.0000      -0.319618        -8.6973
  19   0.0000       0.111163         3.0249
  20   0.0000       0.147716         4.0196
  21   0.0000       0.166678         4.5355
  22   0.0000       0.174867         4.7584
  23   0.0000       0.198869         5.4115

MULLIKEN ATOMIC CHARGES
-----------------------
   0 C :   -0.365096
   1 C :    0.105859
   2 C :   -0.287361
   3 C :   -0.103916
   4 C :   -0.349885
   5 H :    0.134754
   6 H :    0.131087
   7 H :    0.146320
   8 H :    0.145098
   9 H :    0.139517
  10 H :    0.099559
  11 H :    0.099561
  12 H :    0.104503
Sum of atomic charges:   -0.0000000

LOEWDIN ATOMIC CHARGES
----------------------
   0 C :    0.091656
   1 C :   -0.067299
   2 C :    0.117200
   3 C :    0.018057
   4 C :    0.089214
   5 H :   -0.042231
   6 H :   -0.041565
   7 H :   -0.019242
   8 H :   -0.039321
   9 H :   -0.042658
  10 H :   -0.021669
  11 H :   -0.021672
  12 H :   -0.020471

  Mayer bond orders larger than 0.1
B(  0-C ,  1-C ) :   1.7873 B(  0-C ,  5-H ) :   0.9740 B(  0-C ,  6-H ) :   0.9747
B(  1-C ,  2-C ) :   0.9392 B(  1-C ,  3-C ) :   1.0251 B(  2-C , 10-H ) :   0.9726
B(  2-C , 11-H ) :   0.9726 B(  2-C , 12-H ) :   0.9929 B(  3-C ,  4-C ) :   1.8130
B(  3-C ,  7-H ) :   0.9672 B(  4-C ,  8-H ) :   0.9774 B(  4-C ,  9-H ) :   0.9664

E(0)                                       ...   -194.026965170
E(0)                                       ...   -194.026965170
E(CORR)(strong-pairs)                      ...     -0.872401466
E(CORR)(weak-pairs)                        ...     -0.000640113
E(CORR)(corrected)                         ...     -0.873041579
E(TOT)                                     ...   -194.900006749
E(CCSD(T))                                 ...   -194.938525185
FINAL SINGLE POINT ENERGY      -194.938525185472

DIPOLE MOMENT
-------------
                                X             Y             Z
Electronic contribution:      0.33563      -1.67029      -0.00004
Nuclear contribution   :     -0.34226       1.76868       0.00005
                        -----------------------------------------
Total Dipole Moment    :     -0.00663       0.09839       0.00001
                        -----------------------------------------
Magnitude (a.u.)       :      0.09861
Magnitude (Debye)      :      0.25066

Rotational constants in cm-1:     0.283298     0.138122     0.094484
Rotational constants in MHz :  8493.064090  4140.801776  2832.550334

                             ****ORCA TERMINATED NORMALLY****
TOTAL RUN TIME: 0 days 0 hours 3 minutes 56 seconds 378 msec
