                         Program Version 4.1.x  -  STABLE  -
|  1> ! RHF DLPNO-CCSD(T) cc-pVTZ RIJK cc-pVTZ/JK cc-pVTZ/C
|  2> ! KDIIS SOSCF TightSCF TightPNO
|  3>
|  4> %pal nprocs 8 end
|  5>
|  6> %maxcore 8000
|  7>
|  8> %scf maxiter 300
|  9>      shift shift 0.2 erroff 0.1 end
| 10> end
| 11>
| 12> * xyzfile 0 1 2_methoxytetrahydropyran_eq.xyz
| 13>
| 14>
| 15>                          ****END OF INPUT****

CARTESIAN COORDINATES (ANGSTROEM)
---------------------------------
  C      0.562700    0.268100    0.227520
  O      0.155300   -0.992480   -0.309850
  C     -1.126560   -1.405590    0.167140
  C     -2.214290   -0.403560   -0.223930
  C     -1.842920    1.002120    0.273520
  C     -0.414920    1.370700   -0.162690
  O      1.821820    0.580200   -0.276860
  C      2.861850   -0.305660    0.132000
  H     -1.303800   -2.390990   -0.272180
  H     -1.093560   -1.522630    1.264560
  H     -3.177560   -0.724520    0.192220
  H     -2.314140   -0.399100   -1.316760
  H     -1.908660    1.027540    1.370910
  H     -2.555730    1.746800   -0.097910
  H     -0.092080    2.314070    0.291040
  H     -0.360940    1.488060   -1.251430
  H      0.612020    0.161820    1.331800
  H      3.792840    0.113500   -0.254300
  H      2.918110   -0.362450    1.229220
  H      2.711300   -1.310520   -0.274840

 Total Charge           Charge          ....    0
 Multiplicity           Mult            ....    1
 Number of Electrons    NEL             ....   64
 Basis Dimension        Dim             ....  408

ORBITAL ENERGIES
----------------

  NO   OCC          E(Eh)            E(eV)
   0   2.0000     -20.554594      -559.3189
   1   2.0000     -20.549704      -559.1859
   2   2.0000     -11.326561      -308.2114
   3   2.0000     -11.275642      -306.8258
   4   2.0000     -11.265297      -306.5443
   5   2.0000     -11.227307      -305.5105
   6   2.0000     -11.224241      -305.4271
   7   2.0000     -11.219044      -305.2857
   8   2.0000      -1.406442       -38.2712
   9   2.0000      -1.337004       -36.3817
  10   2.0000      -1.076535       -29.2940
  11   2.0000      -1.021589       -27.7988
  12   2.0000      -0.929293       -25.2873
  13   2.0000      -0.871134       -23.7047
  14   2.0000      -0.839563       -22.8457
  15   2.0000      -0.778229       -21.1767
  16   2.0000      -0.684870       -18.6363
  17   2.0000      -0.673167       -18.3178
  18   2.0000      -0.648417       -17.6443
  19   2.0000      -0.624420       -16.9913
  20   2.0000      -0.604286       -16.4434
  21   2.0000      -0.595184       -16.1958
  22   2.0000      -0.585409       -15.9298
  23   2.0000      -0.543819       -14.7981
  24   2.0000      -0.532661       -14.4945
  25   2.0000      -0.510386       -13.8883
  26   2.0000      -0.485414       -13.2088
  27   2.0000      -0.481606       -13.1052
  28   2.0000      -0.473207       -12.8766
  29   2.0000      -0.456843       -12.4313
  30   2.0000      -0.431521       -11.7423
  31   2.0000      -0.405599       -11.0369
  32   0.0000       0.141053         3.8382
  33   0.0000       0.153656         4.1812
  34   0.0000       0.167621         4.5612
  35   0.0000       0.168004         4.5716
  36   0.0000       0.194422         5.2905

MULLIKEN ATOMIC CHARGES
-----------------------
   0 C :    0.323014
   1 O :   -0.401141
   2 C :    0.016952
   3 C :   -0.183523
   4 C :   -0.220443
   5 C :   -0.177341
   6 O :   -0.351206
   7 C :   -0.075327
   8 H :    0.109297
   9 H :    0.064823
  10 H :    0.102056
  11 H :    0.093758
  12 H :    0.092088
  13 H :    0.112671
  14 H :    0.111137
  15 H :    0.097784
  16 H :    0.032833
  17 H :    0.106574
  18 H :    0.053520
  19 H :    0.092475
Sum of atomic charges:    0.0000000

LOEWDIN ATOMIC CHARGES
----------------------
   0 C :   -0.281626
   1 O :    0.242108
   2 C :   -0.050171
   3 C :    0.051596
   4 C :    0.057146
   5 C :    0.058433
   6 O :    0.270925
   7 C :    0.021104
   8 H :   -0.027402
   9 H :   -0.038439
  10 H :   -0.024454
  11 H :   -0.023716
  12 H :   -0.026852
  13 H :   -0.025114
  14 H :   -0.021725
  15 H :   -0.020015
  16 H :   -0.045745
  17 H :   -0.032736
  18 H :   -0.043539
  19 H :   -0.039776

  Mayer bond orders larger than 0.1
B(  0-C ,  1-O ) :   0.9670 B(  0-C ,  5-C ) :   0.9526 B(  0-C ,  6-O ) :   1.0870
B(  0-C , 16-H ) :   0.9810 B(  1-O ,  2-C ) :   0.9800 B(  2-C ,  3-C ) :   0.9513
B(  2-C ,  8-H ) :   0.9899 B(  2-C ,  9-H ) :   0.9854 B(  3-C ,  4-C ) :   0.9435
B(  3-C , 10-H ) :   0.9851 B(  3-C , 11-H ) :   0.9796 B(  4-C ,  5-C ) :   0.9450
B(  4-C , 12-H ) :   0.9851 B(  4-C , 13-H ) :   0.9917 B(  5-C , 14-H ) :   0.9868
B(  5-C , 15-H ) :   0.9769 B(  6-O ,  7-C ) :   0.9693 B(  7-C , 17-H ) :   0.9837
B(  7-C , 18-H ) :   0.9721 B(  7-C , 19-H ) :   0.9708

E(0)                                       ...   -384.043790889
E(0)                                       ...   -384.043790889
E(CORR)(strong-pairs)                      ...     -1.557968733
E(CORR)(weak-pairs)                        ...     -0.001703292
E(CORR)(corrected)                         ...     -1.559672024
E(TOT)                                     ...   -385.603462913
E(CCSD(T))                                 ...   -385.664480375
FINAL SINGLE POINT ENERGY      -385.664480375199

DIPOLE MOMENT
-------------
                                X             Y             Z
Electronic contribution:      2.38225      -0.24553      -1.69131
Nuclear contribution   :     -2.83627       0.13978       2.27964
                        -----------------------------------------
Total Dipole Moment    :     -0.45402      -0.10576       0.58833
                        -----------------------------------------
Magnitude (a.u.)       :      0.75063
Magnitude (Debye)      :      1.90796

Rotational constants in cm-1:     0.138125     0.048359     0.038463
Rotational constants in MHz :  4140.896098  1449.763307  1153.087351

                             ****ORCA TERMINATED NORMALLY****
TOTAL RUN TIME: 0 days 0 hours 15 minutes 49 seconds 616 msec
