                         Program Version 4.1.x  -  STABLE  -
|  1> ! RHF DLPNO-CCSD(T) cc-pVTZ RIJK cc-pVTZ/JK cc-pVTZ/C
|  2> ! KDIIS SOSCF TightSCF TightPNO
|  3>
|  4> %pal nprocs 8 end
|  5>
|  6> %maxcore 8000
|  7>
|  8> %scf maxiter 300
|  9>      shift shift 0.2 erroff 0.1 end
| 10> end
| 11>
| 12> * xyzfile 0 1 2_methylpiperidine_eq.xyz
| 13>
| 14>
| 15>                          ****END OF INPUT****

CARTESIAN COORDINATES (ANGSTROEM)
---------------------------------
  C     -1.234660    1.233140    0.205300
  C      0.259090    1.275260   -0.154920
  C      0.991950    0.010900    0.320750
  N      0.309860   -1.164530   -0.238480
  C     -1.087410   -1.283400    0.189100
  C     -1.883080   -0.066780   -0.294640
  C      2.461660    0.002100   -0.098320
  H      0.823400   -2.009290   -0.000840
  H      0.945620   -0.002170    1.430150
  H     -1.180460   -1.355770    1.291450
  H     -1.500640   -2.205260   -0.234870
  H      0.375250    1.351040   -1.244660
  H      0.734340    2.159760    0.287800
  H     -2.920740   -0.139560    0.053820
  H     -1.902460   -0.072430   -1.391970
  H     -1.344870    1.294360    1.297910
  H     -1.751810    2.106450   -0.210400
  H      2.547920    0.030820   -1.189850
  H      2.988750    0.867430    0.317670
  H      2.971330   -0.900990    0.259540

 Total Charge           Charge          ....    0
 Multiplicity           Mult            ....    1
 Number of Electrons    NEL             ....   56
 Basis Dimension        Dim             ....  392

ORBITAL ENERGIES
----------------

  NO   OCC          E(Eh)            E(eV)
   0   2.0000     -15.532354      -422.6568
   1   2.0000     -11.248533      -306.0881
   2   2.0000     -11.242324      -305.9192
   3   2.0000     -11.215753      -305.1962
   4   2.0000     -11.213304      -305.1295
   5   2.0000     -11.212284      -305.1018
   6   2.0000     -11.210464      -305.0522
   7   2.0000      -1.205915       -32.8146
   8   2.0000      -1.050101       -28.5747
   9   2.0000      -1.033139       -28.1131
  10   2.0000      -0.931873       -25.3575
  11   2.0000      -0.852971       -23.2105
  12   2.0000      -0.808197       -21.9922
  13   2.0000      -0.749115       -20.3845
  14   2.0000      -0.669091       -18.2069
  15   2.0000      -0.621714       -16.9177
  16   2.0000      -0.606919       -16.5151
  17   2.0000      -0.591302       -16.0902
  18   2.0000      -0.570031       -15.5113
  19   2.0000      -0.551784       -15.0148
  20   2.0000      -0.526625       -14.3302
  21   2.0000      -0.513853       -13.9827
  22   2.0000      -0.506847       -13.7920
  23   2.0000      -0.472187       -12.8488
  24   2.0000      -0.462736       -12.5917
  25   2.0000      -0.438832       -11.9412
  26   2.0000      -0.434932       -11.8351
  27   2.0000      -0.361643        -9.8408
  28   0.0000       0.140926         3.8348
  29   0.0000       0.158031         4.3002
  30   0.0000       0.163461         4.4480
  31   0.0000       0.166951         4.5430
  32   0.0000       0.195441         5.3182

MULLIKEN ATOMIC CHARGES
-----------------------
   0 C :   -0.200622
   1 C :   -0.180037
   2 C :    0.042215
   3 N :   -0.300996
   4 C :   -0.089452
   5 C :   -0.174754
   6 C :   -0.294607
   7 H :    0.116773
   8 H :    0.073957
   9 H :    0.060715
  10 H :    0.099202
  11 H :    0.088768
  12 H :    0.101504
  13 H :    0.101041
  14 H :    0.087787
  15 H :    0.086483
  16 H :    0.106952
  17 H :    0.096378
  18 H :    0.089849
  19 H :    0.088846
Sum of atomic charges:    0.0000000

LOEWDIN ATOMIC CHARGES
----------------------
   0 C :    0.055961
   1 C :    0.059929
   2 C :   -0.094486
   3 N :    0.299639
   4 C :   -0.013104
   5 C :    0.054606
   6 C :    0.109053
   7 H :   -0.111829
   8 H :   -0.039250
   9 H :   -0.043758
  10 H :   -0.030761
  11 H :   -0.024533
  12 H :   -0.026501
  13 H :   -0.027649
  14 H :   -0.026014
  15 H :   -0.028014
  16 H :   -0.027584
  17 H :   -0.026668
  18 H :   -0.027430
  19 H :   -0.031606

  Mayer bond orders larger than 0.1
B(  0-C ,  1-C ) :   0.9615 B(  0-C ,  5-C ) :   0.9532 B(  0-C , 15-H ) :   0.9854
B(  0-C , 16-H ) :   0.9936 B(  1-C ,  2-C ) :   0.9409 B(  1-C , 11-H ) :   0.9803
B(  1-C , 12-H ) :   0.9928 B(  2-C ,  3-N ) :   0.9694 B(  2-C ,  6-C ) :   0.9607
B(  2-C ,  8-H ) :   0.9776 B(  3-N ,  4-C ) :   0.9897 B(  3-N ,  7-H ) :   0.9880
B(  4-C ,  5-C ) :   0.9539 B(  4-C ,  9-H ) :   0.9788 B(  4-C , 10-H ) :   0.9926
B(  5-C , 13-H ) :   0.9939 B(  5-C , 14-H ) :   0.9806 B(  6-C , 17-H ) :   0.9795
B(  6-C , 18-H ) :   0.9846 B(  6-C , 19-H ) :   0.9863

E(0)                                       ...   -289.326459308
E(0)                                       ...   -289.326459308
E(CORR)(strong-pairs)                      ...     -1.315566909
E(CORR)(weak-pairs)                        ...     -0.001348381
E(CORR)(corrected)                         ...     -1.316915291
E(TOT)                                     ...   -290.643374599
E(CCSD(T))                                 ...   -290.696001008
FINAL SINGLE POINT ENERGY      -290.696001007663

DIPOLE MOMENT
-------------
                                X             Y             Z
Electronic contribution:     -0.83096      -1.24935      -0.36253
Nuclear contribution   :      0.83506       1.18511       0.70451
                        -----------------------------------------
Total Dipole Moment    :      0.00410      -0.06424       0.34197
                        -----------------------------------------
Magnitude (a.u.)       :      0.34798
Magnitude (Debye)      :      0.88449

Rotational constants in cm-1:     0.144210     0.075074     0.054176
Rotational constants in MHz :  4323.299965  2250.658908  1624.147002

                             ****ORCA TERMINATED NORMALLY****
TOTAL RUN TIME: 0 days 0 hours 13 minutes 48 seconds 410 msec
