                         Program Version 4.1.x  -  STABLE  -
|  1> ! RHF DLPNO-CCSD(T) cc-pVTZ RIJK cc-pVTZ/JK cc-pVTZ/C
|  2> ! KDIIS SOSCF TightSCF TightPNO
|  3>
|  4> %pal nprocs 8 end
|  5>
|  6> %maxcore 8000
|  7>
|  8> %scf maxiter 300
|  9>      shift shift 0.2 erroff 0.1 end
| 10> end
| 11>
| 12> * xyzfile 0 1 2_methyl_1_3_butadiene_cis.xyz
| 13>
| 14>
| 15>                          ****END OF INPUT****

CARTESIAN COORDINATES (ANGSTROEM)
---------------------------------
  C     -0.543860    1.444310    0.000000
  C     -0.449580    0.102590   -0.000010
  C     -1.707390   -0.754670    0.000000
  C      0.841850   -0.622810   -0.000000
  C      2.079570   -0.103730    0.000000
  H     -1.510500    1.940040   -0.000030
  H      0.329670    2.088610    0.000040
  H      0.755470   -1.708840    0.000000
  H      2.951380   -0.750100   -0.000000
  H      2.268490    0.966190    0.000000
  H     -1.470450   -1.822360   -0.000810
  H     -2.323370   -0.554410    0.883330
  H     -2.324190   -0.553250   -0.882480

 Total Charge           Charge          ....    0
 Multiplicity           Mult            ....    1
 Number of Electrons    NEL             ....   38
 Basis Dimension        Dim             ....  262

ORBITAL ENERGIES
----------------

  NO   OCC          E(Eh)            E(eV)
   0   2.0000     -11.244987      -305.9916
   1   2.0000     -11.237090      -305.7768
   2   2.0000     -11.227972      -305.5287
   3   2.0000     -11.222920      -305.3912
   4   2.0000     -11.217228      -305.2363
   5   2.0000      -1.099775       -29.9264
   6   2.0000      -1.005843       -27.3704
   7   2.0000      -0.930252       -25.3134
   8   2.0000      -0.825323       -22.4582
   9   2.0000      -0.708885       -19.2897
  10   2.0000      -0.647776       -17.6269
  11   2.0000      -0.622456       -16.9379
  12   2.0000      -0.570977       -15.5371
  13   2.0000      -0.570126       -15.5139
  14   2.0000      -0.530935       -14.4475
  15   2.0000      -0.507146       -13.8001
  16   2.0000      -0.486335       -13.2339
  17   2.0000      -0.423232       -11.5167
  18   2.0000      -0.313843        -8.5401
  19   0.0000       0.096852         2.6355
  20   0.0000       0.145888         3.9698
  21   0.0000       0.168954         4.5975
  22   0.0000       0.173761         4.7283
  23   0.0000       0.205472         5.5912

MULLIKEN ATOMIC CHARGES
-----------------------
   0 C :   -0.345487
   1 C :    0.071381
   2 C :   -0.279708
   3 C :   -0.130793
   4 C :   -0.311020
   5 H :    0.136227
   6 H :    0.130040
   7 H :    0.144623
   8 H :    0.143838
   9 H :    0.132278
  10 H :    0.091648
  11 H :    0.108485
  12 H :    0.108489
Sum of atomic charges:   -0.0000000

LOEWDIN ATOMIC CHARGES
----------------------
   0 C :    0.091289
   1 C :   -0.063549
   2 C :    0.117153
   3 C :    0.011269
   4 C :    0.103118
   5 H :   -0.040873
   6 H :   -0.044480
   7 H :   -0.025081
   8 H :   -0.038700
   9 H :   -0.041854
  10 H :   -0.026474
  11 H :   -0.020908
  12 H :   -0.020909

  Mayer bond orders larger than 0.1
B(  0-C ,  1-C ) :   1.8147 B(  0-C ,  5-H ) :   0.9759 B(  0-C ,  6-H ) :   0.9737
B(  1-C ,  2-C ) :   0.9297 B(  1-C ,  3-C ) :   1.0083 B(  2-C , 10-H ) :   0.9953
B(  2-C , 11-H ) :   0.9784 B(  2-C , 12-H ) :   0.9784 B(  3-C ,  4-C ) :   1.8401
B(  3-C ,  7-H ) :   0.9726 B(  4-C ,  8-H ) :   0.9751 B(  4-C ,  9-H ) :   0.9666

E(0)                                       ...   -194.016432532
E(0)                                       ...   -194.016432532
E(CORR)(strong-pairs)                      ...     -0.873605624
E(CORR)(weak-pairs)                        ...     -0.000632597
E(CORR)(corrected)                         ...     -0.874238221
E(TOT)                                     ...   -194.890670753
E(CCSD(T))                                 ...   -194.929315642
FINAL SINGLE POINT ENERGY      -194.929315642376

DIPOLE MOMENT
-------------
                                X             Y             Z
Electronic contribution:      1.31017       0.30523      -0.00003
Nuclear contribution   :     -1.38661      -0.41292       0.00005
                        -----------------------------------------
Total Dipole Moment    :     -0.07644      -0.10769       0.00002
                        -----------------------------------------
Magnitude (a.u.)       :      0.13206
Magnitude (Debye)      :      0.33566

Rotational constants in cm-1:     0.306773     0.126701     0.091192
Rotational constants in MHz :  9196.815814  3798.392905  2733.858566

                             ****ORCA TERMINATED NORMALLY****
TOTAL RUN TIME: 0 days 0 hours 3 minutes 51 seconds 358 msec
