                         Program Version 4.2.1 -  RELEASE  -
|  1> ! RHF DLPNO-CCSD(T) cc-pVTZ RIJK cc-pVTZ/JK cc-pVTZ/C
|  2> ! KDIIS SOSCF TightSCF TightPNO
|  3>
|  4> %pal nprocs 10 end
|  5>
|  6> %maxcore 8000
|  7>
|  8> %scf maxiter 300
|  9>      shift shift 0.2 erroff 0.1 end
| 10> end
| 11>
| 12> * xyzfile 0 1 2_methylpropenal_trans.xyz
| 13>
| 14>
| 15>                          ****END OF INPUT****

CARTESIAN COORDINATES (ANGSTROEM)
---------------------------------
  C      0.728700    1.616270    0.000000
  C      0.000000    0.486350    0.000000
  C     -1.508580    0.433140    0.000000
  C      0.751790   -0.794720    0.000000
  O      0.238830   -1.900020    0.000000
  H      0.271030    2.601610    0.000000
  H      1.815710    1.581030    0.000000
  H      1.857140   -0.686360    0.000000
  H     -1.847530   -0.604960    0.000000
  H     -1.919250    0.931300    0.884280
  H     -1.919250    0.931300   -0.884280

 Total Charge           Charge          ....    0
 Multiplicity           Mult            ....    1
 Number of Electrons    NEL             ....   38
 Basis Dimension        Dim             ....  234

ORBITAL ENERGIES
----------------

  NO   OCC          E(Eh)            E(eV)
   0   2.0000     -20.554790      -559.3243
   1   2.0000     -11.333596      -308.4028
   2   2.0000     -11.261345      -306.4368
   3   2.0000     -11.258697      -306.3647
   4   2.0000     -11.229210      -305.5623
   5   2.0000      -1.385725       -37.7075
   6   2.0000      -1.103250       -30.0210
   7   2.0000      -0.954965       -25.9859
   8   2.0000      -0.875240       -23.8165
   9   2.0000      -0.744723       -20.2650
  10   2.0000      -0.674592       -18.3566
  11   2.0000      -0.655407       -17.8345
  12   2.0000      -0.591058       -16.0835
  13   2.0000      -0.584955       -15.9174
  14   2.0000      -0.541339       -14.7306
  15   2.0000      -0.534500       -14.5445
  16   2.0000      -0.527799       -14.3621
  17   2.0000      -0.427212       -11.6250
  18   2.0000      -0.380527       -10.3547
  19   0.0000       0.081742         2.2243
  20   0.0000       0.140530         3.8240
  21   0.0000       0.162516         4.4223
  22   0.0000       0.185453         5.0464
  23   0.0000       0.192141         5.2284

MULLIKEN ATOMIC CHARGES
-----------------------
   0 C :   -0.301551
   1 C :    0.023858
   2 C :   -0.283462
   3 C :    0.188526
   4 O :   -0.361942
   5 H :    0.152493
   6 H :    0.147824
   7 H :    0.091529
   8 H :    0.132015
   9 H :    0.105355
  10 H :    0.105355
Sum of atomic charges:    0.0000000

LOEWDIN ATOMIC CHARGES
----------------------
   0 C :    0.135421
   1 C :   -0.085164
   2 C :    0.120154
   3 C :   -0.150286
   4 O :    0.135340
   5 H :   -0.030592
   6 H :   -0.032686
   7 H :   -0.036075
   8 H :   -0.016289
   9 H :   -0.019912
  10 H :   -0.019912

  Mayer bond orders larger than 0.100000
B(  0-C ,  1-C ) :   1.7901 B(  0-C ,  5-H ) :   0.9643 B(  0-C ,  6-H ) :   0.9714
B(  1-C ,  2-C ) :   0.9202 B(  1-C ,  3-C ) :   0.9334 B(  2-C ,  8-H ) :   0.9790
B(  2-C ,  9-H ) :   0.9797 B(  2-C , 10-H ) :   0.9797 B(  3-C ,  4-O ) :   2.0626
B(  3-C ,  7-H ) :   0.9923

E(0)                                       ...   -229.882451929
E(0)                                       ...   -229.882451929
E(CORR)(strong-pairs)                      ...     -0.916544835
E(CORR)(weak-pairs)                        ...     -0.000617446
E(CORR)(corrected)                         ...     -0.917162282
E(TOT)                                     ...   -230.799614211
E(CCSD(T))                                 ...   -230.839479448
FINAL SINGLE POINT ENERGY      -230.839479447678

DIPOLE MOMENT
-------------
                                X             Y             Z
Electronic contribution:      2.01906      -3.49019      -0.00000
Nuclear contribution   :     -1.77002       4.80995       0.00000
                        -----------------------------------------
Total Dipole Moment    :      0.24904       1.31976      -0.00000
                        -----------------------------------------
Magnitude (a.u.)       :      1.34305
Magnitude (Debye)      :      3.41377

Rotational constants in cm-1:     0.283402     0.145054     0.097699
Rotational constants in MHz :  8496.190861  4348.623933  2928.951783

                             ****ORCA TERMINATED NORMALLY****
TOTAL RUN TIME: 0 days 0 hours 3 minutes 1 seconds 326 msec
