                         Program Version 4.1.x  -  STABLE  -
|  1> ! RHF DLPNO-CCSD(T) cc-pVTZ RIJK cc-pVTZ/JK cc-pVTZ/C
|  2> ! KDIIS SOSCF TightSCF TightPNO
|  3>
|  4> %pal nprocs 8 end
|  5>
|  6> %maxcore 8000
|  7>
|  8> %scf maxiter 300
|  9>      shift shift 0.2 erroff 0.1 end
| 10> end
| 11>
| 12> * xyzfile 0 1 2_Me_THP_ax.xyz
| 13>
| 14>
| 15>                          ****END OF INPUT****

CARTESIAN COORDINATES (ANGSTROEM)
---------------------------------
  C      1.075690    0.040090   -0.502030
  O      0.288670   -1.150990   -0.686820
  C     -0.804710   -1.299220    0.220100
  C     -1.772210   -0.116600    0.149810
  C     -1.018360    1.199840    0.390470
  C      0.184240    1.294570   -0.563350
  C      1.951920   -0.040710    0.754750
  H     -1.294170   -2.233360   -0.070620
  H     -0.434770   -1.424980    1.250540
  H     -2.573840   -0.253630    0.886790
  H     -2.240530   -0.098790   -0.843200
  H     -0.679930    1.242890    1.434790
  H     -1.682880    2.059630    0.245200
  H      0.787420    2.184830   -0.345960
  H     -0.185770    1.400200   -1.591200
  H      1.740140    0.040250   -1.373210
  H      2.522630   -0.974430    0.751940
  H      2.660700    0.794880    0.769210
  H      1.372210    0.002510    1.681860

 Total Charge           Charge          ....    0
 Multiplicity           Mult            ....    1
 Number of Electrons    NEL             ....   56
 Basis Dimension        Dim             ....  378

ORBITAL ENERGIES
----------------

  NO   OCC          E(Eh)            E(eV)
   0   2.0000     -20.540941      -558.9474
   1   2.0000     -11.274861      -306.8046
   2   2.0000     -11.266966      -306.5897
   3   2.0000     -11.223065      -305.3951
   4   2.0000     -11.219789      -305.3060
   5   2.0000     -11.219689      -305.3033
   6   2.0000     -11.213214      -305.1271
   7   2.0000      -1.355924       -36.8966
   8   2.0000      -1.073239       -29.2043
   9   2.0000      -1.040815       -28.3220
  10   2.0000      -0.949304       -25.8319
  11   2.0000      -0.863953       -23.5093
  12   2.0000      -0.837652       -22.7937
  13   2.0000      -0.738600       -20.0983
  14   2.0000      -0.674705       -18.3597
  15   2.0000      -0.634691       -17.2708
  16   2.0000      -0.619920       -16.8689
  17   2.0000      -0.599597       -16.3159
  18   2.0000      -0.577022       -15.7016
  19   2.0000      -0.560928       -15.2636
  20   2.0000      -0.536171       -14.5899
  21   2.0000      -0.532129       -14.4800
  22   2.0000      -0.510833       -13.9005
  23   2.0000      -0.486820       -13.2470
  24   2.0000      -0.473622       -12.8879
  25   2.0000      -0.454308       -12.3623
  26   2.0000      -0.428526       -11.6608
  27   2.0000      -0.399154       -10.8615
  28   0.0000       0.136249         3.7075
  29   0.0000       0.158892         4.3237
  30   0.0000       0.161569         4.3965
  31   0.0000       0.175598         4.7783
  32   0.0000       0.199190         5.4202

MULLIKEN ATOMIC CHARGES
-----------------------
   0 C :    0.119040
   1 O :   -0.409383
   2 C :    0.020797
   3 C :   -0.186757
   4 C :   -0.218740
   5 C :   -0.200177
   6 C :   -0.307480
   7 H :    0.112282
   8 H :    0.062005
   9 H :    0.101926
  10 H :    0.089693
  11 H :    0.095367
  12 H :    0.114854
  13 H :    0.102130
  14 H :    0.101020
  15 H :    0.109079
  16 H :    0.112325
  17 H :    0.095877
  18 H :    0.086141
Sum of atomic charges:   -0.0000000

LOEWDIN ATOMIC CHARGES
----------------------
   0 C :   -0.126520
   1 O :    0.240177
   2 C :   -0.054039
   3 C :    0.050834
   4 C :    0.055385
   5 C :    0.058466
   6 C :    0.106712
   7 H :   -0.028414
   8 H :   -0.039822
   9 H :   -0.025197
  10 H :   -0.024880
  11 H :   -0.029168
  12 H :   -0.026435
  13 H :   -0.024489
  14 H :   -0.022588
  15 H :   -0.023433
  16 H :   -0.024428
  17 H :   -0.025997
  18 H :   -0.036163

  Mayer bond orders larger than 0.1
B(  0-C ,  1-O ) :   0.9830 B(  0-C ,  5-C ) :   0.9484 B(  0-C ,  6-C ) :   0.9530
B(  0-C , 15-H ) :   0.9950 B(  1-O ,  2-C ) :   0.9870 B(  2-C ,  3-C ) :   0.9514
B(  2-C ,  7-H ) :   0.9901 B(  2-C ,  8-H ) :   0.9790 B(  3-C ,  4-C ) :   0.9451
B(  3-C ,  9-H ) :   0.9866 B(  3-C , 10-H ) :   0.9811 B(  4-C ,  5-C ) :   0.9466
B(  4-C , 11-H ) :   0.9847 B(  4-C , 12-H ) :   0.9927 B(  5-C , 13-H ) :   0.9875
B(  5-C , 14-H ) :   0.9890 B(  6-C , 16-H ) :   0.9830 B(  6-C , 17-H ) :   0.9774
B(  6-C , 18-H ) :   0.9775

E(0)                                       ...   -309.159113996
E(0)                                       ...   -309.159113996
E(CORR)(strong-pairs)                      ...     -1.332258450
E(CORR)(weak-pairs)                        ...     -0.001339397
E(CORR)(corrected)                         ...     -1.333597847
E(TOT)                                     ...   -310.492711843
E(CCSD(T))                                 ...   -310.545313475
FINAL SINGLE POINT ENERGY      -310.545313475319

DIPOLE MOMENT
-------------
                                X             Y             Z
Electronic contribution:     -0.13623      -2.40120      -2.54417
Nuclear contribution   :     -0.00445       2.85805       2.92464
                        -----------------------------------------
Total Dipole Moment    :     -0.14068       0.45686       0.38047
                        -----------------------------------------
Magnitude (a.u.)       :      0.61096
Magnitude (Debye)      :      1.55293

Rotational constants in cm-1:     0.122170     0.087328     0.065859
Rotational constants in MHz :  3662.577022  2618.037576  1974.411843

                             ****ORCA TERMINATED NORMALLY****
TOTAL RUN TIME: 0 days 0 hours 11 minutes 25 seconds 420 msec
