                         Program Version 4.1.x  -  STABLE  -
|  1> ! RHF DLPNO-CCSD(T) cc-pVTZ RIJK cc-pVTZ/JK cc-pVTZ/C
|  2> ! KDIIS SOSCF TightSCF TightPNO
|  3>
|  4> %pal nprocs 8 end
|  5>
|  6> %maxcore 8000
|  7>
|  8> %scf maxiter 300
|  9>      shift shift 0.2 erroff 0.1 end
| 10> end
| 11>
| 12> * xyzfile 0 1 2_methylthiane_ax.xyz
| 13>
| 14>
| 15>                          ****END OF INPUT****

CARTESIAN COORDINATES (ANGSTROEM)
---------------------------------
  C     -0.220320    1.355550   -0.768680
  C      1.021470    1.474060    0.131670
  C      1.893780    0.208990    0.127240
  C      1.139610   -1.032850    0.609580
  S     -0.326520   -1.425680   -0.430110
  C     -1.186460    0.215830   -0.391270
  C     -1.939040    0.453540    0.924240
  H      2.272710    0.026940   -0.886660
  H      2.767750    0.363850    0.774710
  H      0.827980   -0.917400    1.654290
  H      1.771240   -1.924630    0.555570
  H      1.620840    2.328810   -0.204640
  H      0.717710    1.702740    1.162500
  H     -1.924750    0.116440   -1.195350
  H     -0.778920    2.301540   -0.743070
  H      0.104650    1.206760   -1.805840
  H     -2.661630   -0.346380    1.107100
  H     -2.483070    1.405990    0.881700
  H     -1.264430    0.495480    1.784730

 Total Charge           Charge          ....    0
 Multiplicity           Mult            ....    1
 Number of Electrons    NEL             ....   64
 Basis Dimension        Dim             ....  382

ORBITAL ENERGIES
----------------

  NO   OCC          E(Eh)            E(eV)
   0   2.0000     -91.931867     -2501.5933
   1   2.0000     -11.260515      -306.4142
   2   2.0000     -11.252331      -306.1915
   3   2.0000     -11.227499      -305.5158
   4   2.0000     -11.227142      -305.5061
   5   2.0000     -11.225375      -305.4580
   6   2.0000     -11.219582      -305.3003
   7   2.0000      -8.932869      -243.0757
   8   2.0000      -6.614040      -179.9772
   9   2.0000      -6.613107      -179.9518
  10   2.0000      -6.612274      -179.9291
  11   2.0000      -1.117093       -30.3977
  12   2.0000      -1.038718       -28.2649
  13   2.0000      -1.002656       -27.2837
  14   2.0000      -0.927040       -25.2260
  15   2.0000      -0.836683       -22.7673
  16   2.0000      -0.820884       -22.3374
  17   2.0000      -0.729477       -19.8501
  18   2.0000      -0.650585       -17.7033
  19   2.0000      -0.614918       -16.7328
  20   2.0000      -0.608000       -16.5445
  21   2.0000      -0.579047       -15.7567
  22   2.0000      -0.563643       -15.3375
  23   2.0000      -0.555938       -15.1278
  24   2.0000      -0.520007       -14.1501
  25   2.0000      -0.505259       -13.7488
  26   2.0000      -0.494526       -13.4567
  27   2.0000      -0.480245       -13.0681
  28   2.0000      -0.464538       -12.6407
  29   2.0000      -0.428694       -11.6654
  30   2.0000      -0.403779       -10.9874
  31   2.0000      -0.329881        -8.9765
  32   0.0000       0.132631         3.6091
  33   0.0000       0.150938         4.1072
  34   0.0000       0.160097         4.3565
  35   0.0000       0.173473         4.7204
  36   0.0000       0.174838         4.7576

MULLIKEN ATOMIC CHARGES
-----------------------
   0 C :   -0.181843
   1 C :   -0.219176
   2 C :   -0.173005
   3 C :   -0.182744
   4 S :   -0.173395
   5 C :   -0.086710
   6 C :   -0.280715
   7 H :    0.097722
   8 H :    0.108949
   9 H :    0.109495
  10 H :    0.125155
  11 H :    0.116451
  12 H :    0.096150
  13 H :    0.123236
  14 H :    0.106888
  15 H :    0.109172
  16 H :    0.116093
  17 H :    0.096726
  18 H :    0.091551
Sum of atomic charges:   -0.0000000

LOEWDIN ATOMIC CHARGES
----------------------
   0 C :    0.041974
   1 C :    0.054772
   2 C :    0.035490
   3 C :   -0.095467
   4 S :    0.383145
   5 C :   -0.162055
   6 C :    0.090810
   7 H :   -0.024339
   8 H :   -0.024514
   9 H :   -0.044912
  10 H :   -0.036083
  11 H :   -0.023252
  12 H :   -0.028451
  13 H :   -0.033487
  14 H :   -0.023790
  15 H :   -0.022173
  16 H :   -0.026128
  17 H :   -0.027835
  18 H :   -0.033706

  Mayer bond orders larger than 0.1
B(  0-C ,  1-C ) :   0.9482 B(  0-C ,  5-C ) :   0.9413 B(  0-C , 14-H ) :   0.9874
B(  0-C , 15-H ) :   0.9857 B(  1-C ,  2-C ) :   0.9493 B(  1-C , 11-H ) :   0.9917
B(  1-C , 12-H ) :   0.9837 B(  2-C ,  3-C ) :   0.9398 B(  2-C ,  7-H ) :   0.9790
B(  2-C ,  8-H ) :   0.9864 B(  3-C ,  4-S ) :   0.9826 B(  3-C ,  9-H ) :   0.9782
B(  3-C , 10-H ) :   0.9834 B(  4-S ,  5-C ) :   0.9876 B(  5-C ,  6-C ) :   0.9384
B(  5-C , 13-H ) :   0.9873 B(  6-C , 16-H ) :   0.9826 B(  6-C , 17-H ) :   0.9770
B(  6-C , 18-H ) :   0.9783

E(0)                                       ...   -631.826483917
E(0)                                       ...   -631.826483917
E(CORR)(strong-pairs)                      ...     -1.287156039
E(CORR)(weak-pairs)                        ...     -0.001245096
E(CORR)(corrected)                         ...     -1.288401135
E(TOT)                                     ...   -633.114885052
E(CCSD(T))                                 ...   -633.169277894
FINAL SINGLE POINT ENERGY      -633.169277893896

DIPOLE MOMENT
-------------
                                X             Y             Z
Electronic contribution:     -0.80859      -6.34844      -2.91603
Nuclear contribution   :      1.01368       7.03683       3.20428
                        -----------------------------------------
Total Dipole Moment    :      0.20509       0.68839       0.28825
                        -----------------------------------------
Magnitude (a.u.)       :      0.77397
Magnitude (Debye)      :      1.96727

Rotational constants in cm-1:     0.085367     0.075543     0.051358
Rotational constants in MHz :  2559.232101  2264.709088  1539.677247

                             ****ORCA TERMINATED NORMALLY****
TOTAL RUN TIME: 0 days 0 hours 10 minutes 20 seconds 44 msec
