                         Program Version 4.1.x  -  STABLE  -
|  1> ! RHF DLPNO-CCSD(T) cc-pVTZ RIJK cc-pVTZ/JK cc-pVTZ/C
|  2> ! KDIIS SOSCF TightSCF TightPNO
|  3>
|  4> %pal nprocs 8 end
|  5>
|  6> %maxcore 8000
|  7>
|  8> %scf maxiter 300
|  9>      shift shift 0.2 erroff 0.1 end
| 10> end
| 11>
| 12> * xyzfile 0 1 2_methylthiane_eq.xyz
| 13>
| 14>
| 15>                          ****END OF INPUT****

CARTESIAN COORDINATES (ANGSTROEM)
---------------------------------
  C     -0.266490    1.438260   -0.227680
  C      1.220170    1.465340    0.163840
  C      1.992150    0.211730   -0.275930
  C      1.411370   -1.076690    0.312110
  S     -0.336020   -1.361130   -0.178460
  C     -1.046690    0.257920    0.366480
  C     -2.527580    0.282480   -0.017370
  H      1.989640    0.140490   -1.371040
  H      3.041260    0.300230    0.038260
  H      1.474790   -1.064670    1.407330
  H      1.959920   -1.955640   -0.039450
  H      1.691570    2.354830   -0.271430
  H      1.303090    1.575040    1.255340
  H     -0.961590    0.288890    1.461480
  H     -0.744810    2.368960    0.110090
  H     -0.362350    1.409360   -1.321540
  H     -2.990490    1.211910    0.334160
  H     -3.070640   -0.557050    0.428130
  H     -2.651730    0.231550   -1.104670

 Total Charge           Charge          ....    0
 Multiplicity           Mult            ....    1
 Number of Electrons    NEL             ....   64
 Basis Dimension        Dim             ....  382

ORBITAL ENERGIES
----------------

  NO   OCC          E(Eh)            E(eV)
   0   2.0000     -91.931894     -2501.5940
   1   2.0000     -11.259369      -306.3830
   2   2.0000     -11.252504      -306.1962
   3   2.0000     -11.227580      -305.5180
   4   2.0000     -11.226372      -305.4851
   5   2.0000     -11.225721      -305.4674
   6   2.0000     -11.220722      -305.3314
   7   2.0000      -8.933032      -243.0802
   8   2.0000      -6.614177      -179.9809
   9   2.0000      -6.613282      -179.9566
  10   2.0000      -6.612407      -179.9328
  11   2.0000      -1.118008       -30.4225
  12   2.0000      -1.042636       -28.3716
  13   2.0000      -1.003460       -27.3055
  14   2.0000      -0.924168       -25.1479
  15   2.0000      -0.837866       -22.7995
  16   2.0000      -0.808757       -22.0074
  17   2.0000      -0.749097       -20.3840
  18   2.0000      -0.633698       -17.2438
  19   2.0000      -0.618508       -16.8304
  20   2.0000      -0.606976       -16.5167
  21   2.0000      -0.590389       -16.0653
  22   2.0000      -0.574059       -15.6209
  23   2.0000      -0.534034       -14.5318
  24   2.0000      -0.531376       -14.4595
  25   2.0000      -0.500628       -13.6228
  26   2.0000      -0.486333       -13.2338
  27   2.0000      -0.479041       -13.0354
  28   2.0000      -0.471058       -12.8181
  29   2.0000      -0.430701       -11.7200
  30   2.0000      -0.406467       -11.0605
  31   2.0000      -0.329790        -8.9741
  32   0.0000       0.138167         3.7597
  33   0.0000       0.146861         3.9963
  34   0.0000       0.158067         4.3012
  35   0.0000       0.171942         4.6788
  36   0.0000       0.179318         4.8795

MULLIKEN ATOMIC CHARGES
-----------------------
   0 C :   -0.167501
   1 C :   -0.210857
   2 C :   -0.172190
   3 C :   -0.181876
   4 S :   -0.167999
   5 C :   -0.063955
   6 C :   -0.301036
   7 H :    0.098121
   8 H :    0.108626
   9 H :    0.106197
  10 H :    0.121952
  11 H :    0.112008
  12 H :    0.090496
  13 H :    0.114569
  14 H :    0.105155
  15 H :    0.097333
  16 H :    0.096710
  17 H :    0.112579
  18 H :    0.101667
Sum of atomic charges:    0.0000000

LOEWDIN ATOMIC CHARGES
----------------------
   0 C :    0.039261
   1 C :    0.055001
   2 C :    0.034965
   3 C :   -0.096516
   4 S :    0.383510
   5 C :   -0.163875
   6 C :    0.091242
   7 H :   -0.024646
   8 H :   -0.024234
   9 H :   -0.042643
  10 H :   -0.036196
  11 H :   -0.023615
  12 H :   -0.026710
  13 H :   -0.040248
  14 H :   -0.022952
  15 H :   -0.023531
  16 H :   -0.026774
  17 H :   -0.025788
  18 H :   -0.026251

  Mayer bond orders larger than 0.1
B(  0-C ,  1-C ) :   0.9595 B(  0-C ,  5-C ) :   0.9344 B(  0-C , 14-H ) :   0.9853
B(  0-C , 15-H ) :   0.9761 B(  1-C ,  2-C ) :   0.9496 B(  1-C , 11-H ) :   0.9926
B(  1-C , 12-H ) :   0.9844 B(  2-C ,  3-C ) :   0.9403 B(  2-C ,  7-H ) :   0.9785
B(  2-C ,  8-H ) :   0.9866 B(  3-C ,  4-S ) :   0.9915 B(  3-C ,  9-H ) :   0.9776
B(  3-C , 10-H ) :   0.9845 B(  4-S ,  5-C ) :   0.9934 B(  5-C ,  6-C ) :   0.9572
B(  5-C , 13-H ) :   0.9746 B(  6-C , 16-H ) :   0.9791 B(  6-C , 17-H ) :   0.9839
B(  6-C , 18-H ) :   0.9779

E(0)                                       ...   -631.829715764
E(0)                                       ...   -631.829715764
E(CORR)(strong-pairs)                      ...     -1.286396885
E(CORR)(weak-pairs)                        ...     -0.001239356
E(CORR)(corrected)                         ...     -1.287636241
E(TOT)                                     ...   -633.117352005
E(CCSD(T))                                 ...   -633.171632270
FINAL SINGLE POINT ENERGY      -633.171632270356

DIPOLE MOMENT
-------------
                                X             Y             Z
Electronic contribution:     -0.39136      -5.91276      -0.69275
Nuclear contribution   :      0.71261       6.56291       0.96405
                        -----------------------------------------
Total Dipole Moment    :      0.32125       0.65015       0.27130
                        -----------------------------------------
Magnitude (a.u.)       :      0.77427
Magnitude (Debye)      :      1.96804

Rotational constants in cm-1:     0.102013     0.066945     0.043928
Rotational constants in MHz :  3058.268281  2006.955567  1316.923376

                             ****ORCA TERMINATED NORMALLY****
TOTAL RUN TIME: 0 days 0 hours 11 minutes 21 seconds 360 msec
