                         Program Version 4.1.x  -  STABLE  -
|  1> ! RHF DLPNO-CCSD(T) cc-pVTZ RIJK cc-pVTZ/JK cc-pVTZ/C
|  2> ! KDIIS SOSCF TightSCF TightPNO
|  3>
|  4> %pal nprocs 8 end
|  5>
|  6> %maxcore 8000
|  7>
|  8> %scf maxiter 300
|  9>      shift shift 0.2 erroff 0.1 end
| 10> end
| 11>
| 12> * xyzfile 0 1 2_methylcyclohexanone_ax.xyz
| 13>
| 14>
| 15>                          ****END OF INPUT****

CARTESIAN COORDINATES (ANGSTROEM)
---------------------------------
  C      0.749700    0.786180   -0.379940
  C      0.867250   -0.721400   -0.146170
  C     -0.259130   -1.383200    0.636000
  C     -1.651250   -0.963740    0.119480
  C     -1.783730    0.563460    0.039620
  C     -0.678810    1.166470   -0.841630
  O      1.826030   -1.356900   -0.554840
  C      1.190520    1.551470    0.887930
  H     -0.112110   -2.466020    0.598240
  H     -0.159110   -1.073500    1.687000
  H     -2.426490   -1.387910    0.768010
  H     -1.808730   -1.394880   -0.878770
  H     -1.739510    0.990430    1.050650
  H     -2.765940    0.834340   -0.365660
  H     -0.765630    2.259870   -0.875380
  H     -0.820120    0.812270   -1.871990
  H      1.462980    1.022820   -1.177000
  H      2.209320    1.273390    1.175700
  H      1.176460    2.629630    0.694100
  H      0.533390    1.359240    1.742130

 Total Charge           Charge          ....    0
 Multiplicity           Mult            ....    1
 Number of Electrons    NEL             ....   62
 Basis Dimension        Dim             ....  408

ORBITAL ENERGIES
----------------

  NO   OCC          E(Eh)            E(eV)
   0   2.0000     -20.537382      -558.8506
   1   2.0000     -11.321396      -308.0709
   2   2.0000     -11.240718      -305.8755
   3   2.0000     -11.236778      -305.7683
   4   2.0000     -11.234967      -305.7190
   5   2.0000     -11.234344      -305.7020
   6   2.0000     -11.232448      -305.6504
   7   2.0000     -11.229514      -305.5706
   8   2.0000      -1.372905       -37.3586
   9   2.0000      -1.122872       -30.5549
  10   2.0000      -1.045060       -28.4375
  11   2.0000      -0.996631       -27.1197
  12   2.0000      -0.920467       -25.0472
  13   2.0000      -0.842630       -22.9291
  14   2.0000      -0.811835       -22.0912
  15   2.0000      -0.712689       -19.3932
  16   2.0000      -0.663912       -18.0660
  17   2.0000      -0.633971       -17.2512
  18   2.0000      -0.632300       -17.2057
  19   2.0000      -0.596544       -16.2328
  20   2.0000      -0.587614       -15.9898
  21   2.0000      -0.568204       -15.4616
  22   2.0000      -0.561101       -15.2683
  23   2.0000      -0.551108       -14.9964
  24   2.0000      -0.520080       -14.1521
  25   2.0000      -0.498485       -13.5645
  26   2.0000      -0.489374       -13.3165
  27   2.0000      -0.473176       -12.8758
  28   2.0000      -0.459925       -12.5152
  29   2.0000      -0.455276       -12.3887
  30   2.0000      -0.391168       -10.6442
  31   0.0000       0.125194         3.4067
  32   0.0000       0.141739         3.8569
  33   0.0000       0.151362         4.1188
  34   0.0000       0.166596         4.5333
  35   0.0000       0.172766         4.7012

MULLIKEN ATOMIC CHARGES
-----------------------
   0 C :   -0.102432
   1 C :    0.298241
   2 C :   -0.214996
   3 C :   -0.203802
   4 C :   -0.209903
   5 C :   -0.212317
   6 O :   -0.381517
   7 C :   -0.317143
   8 H :    0.133571
   9 H :    0.104067
  10 H :    0.116806
  11 H :    0.101021
  12 H :    0.095956
  13 H :    0.119387
  14 H :    0.110095
  15 H :    0.112007
  16 H :    0.131455
  17 H :    0.120566
  18 H :    0.106287
  19 H :    0.092652
Sum of atomic charges:    0.0000000

LOEWDIN ATOMIC CHARGES
----------------------
   0 C :   -0.015880
   1 C :   -0.214649
   2 C :    0.060539
   3 C :    0.062789
   4 C :    0.056619
   5 C :    0.066742
   6 O :    0.128314
   7 C :    0.120461
   8 H :   -0.015434
   9 H :   -0.016710
  10 H :   -0.023517
  11 H :   -0.022975
  12 H :   -0.027927
  13 H :   -0.022871
  14 H :   -0.022344
  15 H :   -0.021188
  16 H :   -0.013007
  17 H :   -0.021202
  18 H :   -0.024002
  19 H :   -0.033757

  Mayer bond orders larger than 0.1
B(  0-C ,  1-C ) :   0.9383 B(  0-C ,  5-C ) :   0.9346 B(  0-C ,  7-C ) :   0.9423
B(  0-C , 16-H ) :   0.9823 B(  1-C ,  2-C ) :   0.9404 B(  1-C ,  6-O ) :   2.0934
B(  2-C ,  3-C ) :   0.9343 B(  2-C ,  8-H ) :   0.9832 B(  2-C ,  9-H ) :   0.9699
B(  3-C ,  4-C ) :   0.9421 B(  3-C , 10-H ) :   0.9901 B(  3-C , 11-H ) :   0.9814
B(  4-C ,  5-C ) :   0.9419 B(  4-C , 12-H ) :   0.9824 B(  4-C , 13-H ) :   0.9895
B(  5-C , 14-H ) :   0.9891 B(  5-C , 15-H ) :   0.9878 B(  7-C , 17-H ) :   0.9812
B(  7-C , 18-H ) :   0.9794 B(  7-C , 19-H ) :   0.9762

E(0)                                       ...   -347.054669957
E(0)                                       ...   -347.054669957
E(CORR)(strong-pairs)                      ...     -1.475553088
E(CORR)(weak-pairs)                        ...     -0.001510280
E(CORR)(corrected)                         ...     -1.477063369
E(TOT)                                     ...   -348.531733326
E(CCSD(T))                                 ...   -348.593136480
FINAL SINGLE POINT ENERGY      -348.593136479796

DIPOLE MOMENT
-------------
                                X             Y             Z
Electronic contribution:      4.28405      -4.26401      -2.20486
Nuclear contribution   :     -5.38409       5.02242       2.63486
                        -----------------------------------------
Total Dipole Moment    :     -1.10004       0.75841       0.43000
                        -----------------------------------------
Magnitude (a.u.)       :      1.40363
Magnitude (Debye)      :      3.56774

Rotational constants in cm-1:     0.083831     0.069888     0.048204
Rotational constants in MHz :  2513.192376  2095.196921  1445.115568

                             ****ORCA TERMINATED NORMALLY****
TOTAL RUN TIME: 0 days 0 hours 15 minutes 10 seconds 425 msec
