                         Program Version 4.2.1 -  RELEASE  -
|  1> ! RHF DLPNO-CCSD(T) cc-pVTZ RIJK cc-pVTZ/JK cc-pVTZ/C
|  2> ! KDIIS SOSCF TightSCF TightPNO
|  3>
|  4> %pal nprocs 10 end
|  5>
|  6> %maxcore 8000
|  7>
|  8> %scf maxiter 300
|  9>      shift shift 0.2 erroff 0.1 end
| 10> end
| 11>
| 12> * xyzfile 0 1 2_methylpropenal_cis.xyz
| 13>
| 14>
| 15>                          ****END OF INPUT****

CARTESIAN COORDINATES (ANGSTROEM)
---------------------------------
  C      0.392350    1.464560   -0.000050
  C      0.422900    0.122740   -0.000170
  C      1.684030   -0.703800    0.000210
  C     -0.867200   -0.631680   -0.000850
  O     -1.976570   -0.129580    0.000490
  H      1.302540    2.057250    0.000250
  H     -0.558270    1.989280   -0.000290
  H     -0.761300   -1.738620    0.000300
  H      1.730920   -1.355940    0.881370
  H      1.731610   -1.355660   -0.881110
  H      2.574680   -0.070570    0.000650

 Total Charge           Charge          ....    0
 Multiplicity           Mult            ....    1
 Number of Electrons    NEL             ....   38
 Basis Dimension        Dim             ....  234

ORBITAL ENERGIES
----------------

  NO   OCC          E(Eh)            E(eV)
   0   2.0000     -20.554014      -559.3031
   1   2.0000     -11.334034      -308.4147
   2   2.0000     -11.255237      -306.2706
   3   2.0000     -11.250177      -306.1329
   4   2.0000     -11.241586      -305.8991
   5   2.0000      -1.384673       -37.6789
   6   2.0000      -1.098957       -29.9041
   7   2.0000      -0.954826       -25.9821
   8   2.0000      -0.881262       -23.9804
   9   2.0000      -0.737625       -20.0718
  10   2.0000      -0.673356       -18.3230
  11   2.0000      -0.649011       -17.6605
  12   2.0000      -0.591034       -16.0828
  13   2.0000      -0.591017       -16.0824
  14   2.0000      -0.556591       -15.1456
  15   2.0000      -0.529210       -14.4005
  16   2.0000      -0.528273       -14.3750
  17   2.0000      -0.425293       -11.5728
  18   2.0000      -0.374399       -10.1879
  19   0.0000       0.079513         2.1637
  20   0.0000       0.134500         3.6599
  21   0.0000       0.171258         4.6602
  22   0.0000       0.184951         5.0328
  23   0.0000       0.193394         5.2625

MULLIKEN ATOMIC CHARGES
-----------------------
   0 C :   -0.287277
   1 C :   -0.007603
   2 C :   -0.262099
   3 C :    0.192638
   4 O :   -0.356051
   5 H :    0.151813
   6 H :    0.171286
   7 H :    0.094484
   8 H :    0.099135
   9 H :    0.099136
  10 H :    0.104538
Sum of atomic charges:   -0.0000000

LOEWDIN ATOMIC CHARGES
----------------------
   0 C :    0.153739
   1 C :   -0.103196
   2 C :    0.109468
   3 C :   -0.142466
   4 O :    0.137594
   5 H :   -0.033341
   6 H :   -0.025344
   7 H :   -0.038463
   8 H :   -0.020279
   9 H :   -0.020282
  10 H :   -0.017432

  Mayer bond orders larger than 0.100000
B(  0-C ,  1-C ) :   1.8059 B(  0-C ,  5-H ) :   0.9728 B(  0-C ,  6-H ) :   0.9538
B(  1-C ,  2-C ) :   0.9452 B(  1-C ,  3-C ) :   0.9112 B(  2-C ,  8-H ) :   0.9733
B(  2-C ,  9-H ) :   0.9733 B(  2-C , 10-H ) :   0.9880 B(  3-C ,  4-O ) :   2.0803
B(  3-C ,  7-H ) :   0.9964

E(0)                                       ...   -229.879323968
E(0)                                       ...   -229.879323968
E(CORR)(strong-pairs)                      ...     -0.916678393
E(CORR)(weak-pairs)                        ...     -0.000606223
E(CORR)(corrected)                         ...     -0.917284617
E(TOT)                                     ...   -230.796608585
E(CCSD(T))                                 ...   -230.836369071
FINAL SINGLE POINT ENERGY      -230.836369070847

DIPOLE MOMENT
-------------
                                X             Y             Z
Electronic contribution:     -4.80636       0.29228      -0.00190
Nuclear contribution   :      6.09802      -0.48498       0.00121
                        -----------------------------------------
Total Dipole Moment    :      1.29166      -0.19270      -0.00069
                        -----------------------------------------
Magnitude (a.u.)       :      1.30595
Magnitude (Debye)      :      3.31946

Rotational constants in cm-1:     0.315248     0.133741     0.095571
Rotational constants in MHz :  9450.910943  4009.463824  2865.132120

                             ****ORCA TERMINATED NORMALLY****
TOTAL RUN TIME: 0 days 0 hours 3 minutes 11 seconds 913 msec
