                         Program Version 4.1.x  -  STABLE  -
|  1> ! RHF DLPNO-CCSD(T) cc-pVTZ RIJK cc-pVTZ/JK cc-pVTZ/C
|  2> ! KDIIS SOSCF TightSCF TightPNO
|  3>
|  4> %pal nprocs 8 end
|  5>
|  6> %maxcore 8000
|  7>
|  8> %scf maxiter 300
|  9>      shift shift 0.2 erroff 0.1 end
| 10> end
| 11>
| 12> * xyzfile 0 1 2_methylpiperidine_ax.xyz
| 13>
| 14>
| 15>                          ****END OF INPUT****

CARTESIAN COORDINATES (ANGSTROEM)
---------------------------------
  C     -1.000230    1.226460    0.355200
  C      0.207950    1.283920   -0.595020
  C      1.095300    0.026120   -0.501010
  N      0.240820   -1.160470   -0.692580
  C     -0.867030   -1.290050    0.260510
  C     -1.791630   -0.073950    0.146470
  C      1.956930   -0.003300    0.778990
  H      0.807620   -2.003880   -0.696290
  H      1.784900    0.042940   -1.355320
  H     -0.530360   -1.388250    1.310070
  H     -1.413820   -2.207560    0.015510
  H     -0.156840    1.364810   -1.626540
  H      0.812810    2.176650   -0.394170
  H     -2.604620   -0.155550    0.878410
  H     -2.246190   -0.070630   -0.852830
  H     -0.663180    1.284220    1.399470
  H     -1.644900    2.098570    0.191610
  H      1.353890    0.002940    1.692360
  H      2.583850   -0.902800    0.799420
  H      2.623400    0.866650    0.815530

 Total Charge           Charge          ....    0
 Multiplicity           Mult            ....    1
 Number of Electrons    NEL             ....   56
 Basis Dimension        Dim             ....  392

ORBITAL ENERGIES
----------------

  NO   OCC          E(Eh)            E(eV)
   0   2.0000     -15.530630      -422.6099
   1   2.0000     -11.249117      -306.1040
   2   2.0000     -11.241210      -305.8889
   3   2.0000     -11.215401      -305.1866
   4   2.0000     -11.212890      -305.1183
   5   2.0000     -11.212737      -305.1141
   6   2.0000     -11.210158      -305.0439
   7   2.0000      -1.201959       -32.7070
   8   2.0000      -1.049514       -28.5587
   9   2.0000      -1.027721       -27.9657
  10   2.0000      -0.935810       -25.4647
  11   2.0000      -0.851099       -23.1596
  12   2.0000      -0.821461       -22.3531
  13   2.0000      -0.728078       -19.8120
  14   2.0000      -0.677828       -18.4446
  15   2.0000      -0.623726       -16.9725
  16   2.0000      -0.608183       -16.5495
  17   2.0000      -0.574466       -15.6320
  18   2.0000      -0.558864       -15.2075
  19   2.0000      -0.553649       -15.0655
  20   2.0000      -0.550052       -14.9677
  21   2.0000      -0.518221       -14.1015
  22   2.0000      -0.504637       -13.7319
  23   2.0000      -0.477260       -12.9869
  24   2.0000      -0.456966       -12.4347
  25   2.0000      -0.438890       -11.9428
  26   2.0000      -0.431265       -11.7353
  27   2.0000      -0.357026        -9.7152
  28   0.0000       0.133890         3.6433
  29   0.0000       0.162252         4.4151
  30   0.0000       0.164282         4.4703
  31   0.0000       0.168451         4.5838
  32   0.0000       0.196735         5.3534

MULLIKEN ATOMIC CHARGES
-----------------------
   0 C :   -0.212405
   1 C :   -0.187179
   2 C :    0.010564
   3 N :   -0.301541
   4 C :   -0.090447
   5 C :   -0.176096
   6 C :   -0.302881
   7 H :    0.114257
   8 H :    0.104076
   9 H :    0.066184
  10 H :    0.103506
  11 H :    0.099222
  12 H :    0.099805
  13 H :    0.101208
  14 H :    0.087806
  15 H :    0.091061
  16 H :    0.111432
  17 H :    0.092027
  18 H :    0.093413
  19 H :    0.095988
Sum of atomic charges:   -0.0000000

LOEWDIN ATOMIC CHARGES
----------------------
   0 C :    0.055360
   1 C :    0.061911
   2 C :   -0.087160
   3 N :    0.300141
   4 C :   -0.014719
   5 C :    0.054820
   6 C :    0.102934
   7 H :   -0.113761
   8 H :   -0.025618
   9 H :   -0.045336
  10 H :   -0.030246
  11 H :   -0.022999
  12 H :   -0.027042
  13 H :   -0.028018
  14 H :   -0.025603
  15 H :   -0.030187
  16 H :   -0.027266
  17 H :   -0.036378
  18 H :   -0.032647
  19 H :   -0.028186

  Mayer bond orders larger than 0.1
B(  0-C ,  1-C ) :   0.9513 B(  0-C ,  5-C ) :   0.9516 B(  0-C , 15-H ) :   0.9845
B(  0-C , 16-H ) :   0.9928 B(  1-C ,  2-C ) :   0.9481 B(  1-C , 11-H ) :   0.9885
B(  1-C , 12-H ) :   0.9947 B(  2-C ,  3-N ) :   1.0022 B(  2-C ,  6-C ) :   0.9498
B(  2-C ,  8-H ) :   0.9962 B(  3-N ,  4-C ) :   0.9818 B(  3-N ,  7-H ) :   1.0010
B(  4-C ,  5-C ) :   0.9524 B(  4-C ,  9-H ) :   0.9780 B(  4-C , 10-H ) :   0.9924
B(  5-C , 13-H ) :   0.9937 B(  5-C , 14-H ) :   0.9818 B(  6-C , 17-H ) :   0.9768
B(  6-C , 18-H ) :   0.9851 B(  6-C , 19-H ) :   0.9790

E(0)                                       ...   -289.321167322
E(0)                                       ...   -289.321167322
E(CORR)(strong-pairs)                      ...     -1.316305075
E(CORR)(weak-pairs)                        ...     -0.001350007
E(CORR)(corrected)                         ...     -1.317655082
E(TOT)                                     ...   -290.638822404
E(CCSD(T))                                 ...   -290.691546835
FINAL SINGLE POINT ENERGY      -290.691546834588

DIPOLE MOMENT
-------------
                                X             Y             Z
Electronic contribution:     -0.58482      -1.21383      -2.01534
Nuclear contribution   :      0.75076       1.16787       2.30453
                        -----------------------------------------
Total Dipole Moment    :      0.16594      -0.04597       0.28919
                        -----------------------------------------
Magnitude (a.u.)       :      0.33657
Magnitude (Debye)      :      0.85549

Rotational constants in cm-1:     0.120008     0.085484     0.064615
Rotational constants in MHz :  3597.751056  2562.754275  1937.120900

                             ****ORCA TERMINATED NORMALLY****
TOTAL RUN TIME: 0 days 0 hours 12 minutes 48 seconds 785 msec
