                         Program Version 4.1.x  -  STABLE  -
|  1> ! RHF DLPNO-CCSD(T) cc-pVTZ RIJK cc-pVTZ/JK cc-pVTZ/C
|  2> ! KDIIS SOSCF TightSCF TightPNO
|  3>
|  4> %pal nprocs 8 end
|  5>
|  6> %maxcore 8000
|  7>
|  8> %scf maxiter 300
|  9>      shift shift 0.2 erroff 0.1 end
| 10> end
| 11>
| 12> * xyzfile 0 1 2_methylcyclohexanone_eq.xyz
| 13>
| 14>
| 15>                          ****END OF INPUT****

CARTESIAN COORDINATES (ANGSTROEM)
---------------------------------
  C     -0.841340   -0.501770    0.388930
  C     -0.444000    0.943750    0.081150
  C      1.007130    1.301690    0.370580
  C      1.980570    0.299790   -0.286130
  C      1.625510   -1.147160    0.082060
  C      0.168670   -1.471550   -0.276830
  O     -1.230190    1.758460   -0.373650
  C     -2.292060   -0.807430    0.015070
  H      1.184320    2.326990    0.034830
  H      1.148060    1.274830    1.461400
  H      3.008570    0.535840    0.012250
  H      1.935670    0.419920   -1.377120
  H      1.779370   -1.299010    1.160230
  H      2.300510   -1.842870   -0.430710
  H     -0.080080   -2.498590    0.016830
  H      0.039410   -1.420090   -1.367550
  H     -0.719270   -0.613620    1.479500
  H     -2.550400   -1.833000    0.299990
  H     -2.983010   -0.122700    0.513610
  H     -2.448540   -0.699390   -1.063030

 Total Charge           Charge          ....    0
 Multiplicity           Mult            ....    1
 Number of Electrons    NEL             ....   62
 Basis Dimension        Dim             ....  408

ORBITAL ENERGIES
----------------

  NO   OCC          E(Eh)            E(eV)
   0   2.0000     -20.538764      -558.8882
   1   2.0000     -11.322017      -308.0877
   2   2.0000     -11.242057      -305.9119
   3   2.0000     -11.237244      -305.7810
   4   2.0000     -11.235458      -305.7324
   5   2.0000     -11.235108      -305.7228
   6   2.0000     -11.233137      -305.6692
   7   2.0000     -11.214198      -305.1538
   8   2.0000      -1.374670       -37.4067
   9   2.0000      -1.122464       -30.5438
  10   2.0000      -1.046211       -28.4689
  11   2.0000      -0.994373       -27.0583
  12   2.0000      -0.919404       -25.0183
  13   2.0000      -0.835237       -22.7280
  14   2.0000      -0.808323       -21.9956
  15   2.0000      -0.724054       -19.7025
  16   2.0000      -0.654466       -17.8089
  17   2.0000      -0.645398       -17.5622
  18   2.0000      -0.621502       -16.9119
  19   2.0000      -0.603360       -16.4183
  20   2.0000      -0.591693       -16.1008
  21   2.0000      -0.570885       -15.5346
  22   2.0000      -0.537900       -14.6370
  23   2.0000      -0.534535       -14.5454
  24   2.0000      -0.523594       -14.2477
  25   2.0000      -0.497564       -13.5394
  26   2.0000      -0.487075       -13.2540
  27   2.0000      -0.473233       -12.8773
  28   2.0000      -0.469404       -12.7731
  29   2.0000      -0.451842       -12.2952
  30   2.0000      -0.393375       -10.7043
  31   0.0000       0.118787         3.2323
  32   0.0000       0.149347         4.0639
  33   0.0000       0.154792         4.2121
  34   0.0000       0.167462         4.5569
  35   0.0000       0.172050         4.6817

MULLIKEN ATOMIC CHARGES
-----------------------
   0 C :   -0.105508
   1 C :    0.276751
   2 C :   -0.200039
   3 C :   -0.202699
   4 C :   -0.202124
   5 C :   -0.195839
   6 O :   -0.374764
   7 C :   -0.289196
   8 H :    0.129587
   9 H :    0.101381
  10 H :    0.115916
  11 H :    0.102711
  12 H :    0.091144
  13 H :    0.115360
  14 H :    0.114583
  15 H :    0.101196
  16 H :    0.113713
  17 H :    0.093746
  18 H :    0.114946
  19 H :    0.099136
Sum of atomic charges:    0.0000000

LOEWDIN ATOMIC CHARGES
----------------------
   0 C :   -0.026080
   1 C :   -0.214787
   2 C :    0.061194
   3 C :    0.062949
   4 C :    0.056729
   5 C :    0.068411
   6 O :    0.132257
   7 C :    0.118110
   8 H :   -0.015773
   9 H :   -0.016855
  10 H :   -0.023431
  11 H :   -0.022600
  12 H :   -0.025495
  13 H :   -0.022885
  14 H :   -0.021970
  15 H :   -0.021791
  16 H :   -0.014086
  17 H :   -0.029054
  18 H :   -0.021798
  19 H :   -0.023045

  Mayer bond orders larger than 0.1
B(  0-C ,  1-C ) :   0.9214 B(  0-C ,  5-C ) :   0.9354 B(  0-C ,  7-C ) :   0.9714
B(  0-C , 16-H ) :   0.9639 B(  1-C ,  2-C ) :   0.9705 B(  1-C ,  6-O ) :   2.0948
B(  2-C ,  3-C ) :   0.9371 B(  2-C ,  8-H ) :   0.9842 B(  2-C ,  9-H ) :   0.9725
B(  3-C ,  4-C ) :   0.9421 B(  3-C , 10-H ) :   0.9898 B(  3-C , 11-H ) :   0.9810
B(  4-C ,  5-C ) :   0.9541 B(  4-C , 12-H ) :   0.9831 B(  4-C , 13-H ) :   0.9901
B(  5-C , 14-H ) :   0.9902 B(  5-C , 15-H ) :   0.9782 B(  7-C , 17-H ) :   0.9862
B(  7-C , 18-H ) :   0.9787 B(  7-C , 19-H ) :   0.9769

E(0)                                       ...   -347.058294900
E(0)                                       ...   -347.058294900
E(CORR)(strong-pairs)                      ...     -1.474998144
E(CORR)(weak-pairs)                        ...     -0.001521507
E(CORR)(corrected)                         ...     -1.476519651
E(TOT)                                     ...   -348.534814551
E(CCSD(T))                                 ...   -348.596140254
FINAL SINGLE POINT ENERGY      -348.596140253917

DIPOLE MOMENT
-------------
                                X             Y             Z
Electronic contribution:     -1.79243       5.02957      -0.32766
Nuclear contribution   :      2.69398      -5.96253       0.76228
                        -----------------------------------------
Total Dipole Moment    :      0.90155      -0.93296       0.43462
                        -----------------------------------------
Magnitude (a.u.)       :      1.36825
Magnitude (Debye)      :      3.47781

Rotational constants in cm-1:     0.094947     0.066009     0.042671
Rotational constants in MHz :  2846.428622  1978.912101  1279.253824

                             ****ORCA TERMINATED NORMALLY****
TOTAL RUN TIME: 0 days 0 hours 15 minutes 42 seconds 875 msec
