                         Program Version 4.1.x  -  STABLE  -
|  1> ! RHF DLPNO-CCSD(T) cc-pVTZ RIJK cc-pVTZ/JK cc-pVTZ/C
|  2> ! KDIIS SOSCF TightSCF TightPNO
|  3>
|  4> %pal nprocs 8 end
|  5>
|  6> %maxcore 8000
|  7>
|  8> %scf maxiter 300
|  9>      shift shift 0.2 erroff 0.1 end
| 10> end
| 11>
| 12> * xyzfile 0 1 2_methoxytetrahydropyran_ax.xyz
| 13>
| 14>
| 15>                          ****END OF INPUT****

CARTESIAN COORDINATES (ANGSTROEM)
---------------------------------
  C      0.571070   -0.409750    0.650040
  O      0.123590    0.918680    0.882000
  C     -0.767530    1.427560   -0.124990
  C     -2.006770    0.547660   -0.280270
  C     -1.591650   -0.900680   -0.580020
  C     -0.592400   -1.387930    0.480060
  O      1.387420   -0.504330   -0.500900
  C      2.607500    0.223760   -0.410730
  H     -1.025330    2.436230    0.208720
  H     -0.233380    1.505540   -1.082630
  H     -2.640800    0.949470   -1.080640
  H     -2.591070    0.584790    0.648840
  H     -1.126190   -0.952750   -1.571800
  H     -2.467820   -1.559070   -0.601400
  H     -0.190180   -2.374210    0.226660
  H     -1.094190   -1.472900    1.451920
  H      1.166650   -0.645630    1.543680
  H      3.158750    0.025540   -1.332230
  H      2.429220    1.300710   -0.312540
  H      3.204970   -0.116220    0.448050

 Total Charge           Charge          ....    0
 Multiplicity           Mult            ....    1
 Number of Electrons    NEL             ....   64
 Basis Dimension        Dim             ....  408

ORBITAL ENERGIES
----------------

  NO   OCC          E(Eh)            E(eV)
   0   2.0000     -20.554640      -559.3202
   1   2.0000     -20.550364      -559.2038
   2   2.0000     -11.325503      -308.1826
   3   2.0000     -11.269532      -306.6595
   4   2.0000     -11.267718      -306.6102
   5   2.0000     -11.221310      -305.3474
   6   2.0000     -11.220706      -305.3309
   7   2.0000     -11.220066      -305.3135
   8   2.0000      -1.403653       -38.1953
   9   2.0000      -1.333354       -36.2824
  10   2.0000      -1.073199       -29.2032
  11   2.0000      -1.022663       -27.8281
  12   2.0000      -0.928060       -25.2538
  13   2.0000      -0.867383       -23.6027
  14   2.0000      -0.850368       -23.1397
  15   2.0000      -0.754790       -20.5389
  16   2.0000      -0.695194       -18.9172
  17   2.0000      -0.664138       -18.0721
  18   2.0000      -0.653408       -17.7801
  19   2.0000      -0.627829       -17.0841
  20   2.0000      -0.602673       -16.3996
  21   2.0000      -0.583715       -15.8837
  22   2.0000      -0.570965       -15.5367
  23   2.0000      -0.543829       -14.7983
  24   2.0000      -0.536727       -14.6051
  25   2.0000      -0.520460       -14.1624
  26   2.0000      -0.501800       -13.6547
  27   2.0000      -0.478983       -13.0338
  28   2.0000      -0.459940       -12.5156
  29   2.0000      -0.440627       -11.9901
  30   2.0000      -0.433178       -11.7874
  31   2.0000      -0.412065       -11.2128
  32   0.0000       0.141916         3.8617
  33   0.0000       0.157186         4.2772
  34   0.0000       0.164159         4.4670
  35   0.0000       0.177394         4.8271
  36   0.0000       0.195209         5.3119

MULLIKEN ATOMIC CHARGES
-----------------------
   0 C :    0.325773
   1 O :   -0.416885
   2 C :    0.021397
   3 C :   -0.194902
   4 C :   -0.203393
   5 C :   -0.183485
   6 O :   -0.394508
   7 C :   -0.083099
   8 H :    0.108596
   9 H :    0.076080
  10 H :    0.102484
  11 H :    0.088953
  12 H :    0.103029
  13 H :    0.109461
  14 H :    0.106046
  15 H :    0.093102
  16 H :    0.087156
  17 H :    0.104092
  18 H :    0.084709
  19 H :    0.065395
Sum of atomic charges:    0.0000000

LOEWDIN ATOMIC CHARGES
----------------------
   0 C :   -0.270378
   1 O :    0.240965
   2 C :   -0.039917
   3 C :    0.051063
   4 C :    0.058965
   5 C :    0.057266
   6 O :    0.247494
   7 C :    0.012451
   8 H :   -0.029244
   9 H :   -0.037001
  10 H :   -0.023964
  11 H :   -0.025369
  12 H :   -0.023564
  13 H :   -0.026996
  14 H :   -0.020986
  15 H :   -0.021805
  16 H :   -0.033519
  17 H :   -0.033241
  18 H :   -0.041118
  19 H :   -0.041101

  Mayer bond orders larger than 0.1
B(  0-C ,  1-O ) :   1.0011 B(  0-C ,  5-C ) :   0.9640 B(  0-C ,  6-O ) :   0.9922
B(  0-C , 16-H ) :   0.9968 B(  1-O ,  2-C ) :   0.9608 B(  2-C ,  3-C ) :   0.9608
B(  2-C ,  8-H ) :   0.9907 B(  2-C ,  9-H ) :   0.9783 B(  3-C ,  4-C ) :   0.9485
B(  3-C , 10-H ) :   0.9862 B(  3-C , 11-H ) :   0.9825 B(  4-C ,  5-C ) :   0.9514
B(  4-C , 12-H ) :   0.9803 B(  4-C , 13-H ) :   0.9931 B(  5-C , 14-H ) :   0.9833
B(  5-C , 15-H ) :   0.9870 B(  6-O ,  7-C ) :   0.9771 B(  7-C , 17-H ) :   0.9833
B(  7-C , 18-H ) :   0.9694 B(  7-C , 19-H ) :   0.9775

E(0)                                       ...   -384.044829391
E(0)                                       ...   -384.044829391
E(CORR)(strong-pairs)                      ...     -1.558981283
E(CORR)(weak-pairs)                        ...     -0.001627095
E(CORR)(corrected)                         ...     -1.560608378
E(TOT)                                     ...   -385.605437769
E(CCSD(T))                                 ...   -385.666591709
FINAL SINGLE POINT ENERGY      -385.666591709229

DIPOLE MOMENT
-------------
                                X             Y             Z
Electronic contribution:      1.34425       0.30031       1.39151
Nuclear contribution   :     -1.43371      -0.32281      -1.49765
                        -----------------------------------------
Total Dipole Moment    :     -0.08946      -0.02251      -0.10615
                        -----------------------------------------
Magnitude (a.u.)       :      0.14063
Magnitude (Debye)      :      0.35745

Rotational constants in cm-1:     0.114025     0.055881     0.046537
Rotational constants in MHz :  3418.395562  1675.283666  1395.130379

                             ****ORCA TERMINATED NORMALLY****
TOTAL RUN TIME: 0 days 0 hours 15 minutes 57 seconds 810 msec
