                         Program Version 4.1.x  -  STABLE  -
|  1> ! RHF DLPNO-CCSD(T) cc-pVTZ RIJK cc-pVTZ/JK cc-pVTZ/C
|  2> ! KDIIS SOSCF TightSCF TightPNO
|  3>
|  4> %pal nprocs 8 end
|  5>
|  6> %maxcore 8000
|  7>
|  8> %scf maxiter 300
|  9>      shift shift 0.2 erroff 0.1 end
| 10> end
| 11>
| 12> * xyzfile 0 1 2_Me_THP_eq.xyz
| 13>
| 14>
| 15>                          ****END OF INPUT****

CARTESIAN COORDINATES (ANGSTROEM)
---------------------------------
  C      0.977590    0.018370    0.324220
  O      0.351880   -1.159900   -0.200590
  C     -1.013890   -1.290960    0.188520
  C     -1.858870   -0.111250   -0.296110
  C     -1.255330    1.211180    0.200160
  C      0.239840    1.278810   -0.149970
  C      2.437360   -0.023630   -0.103730
  H     -1.357070   -2.236290   -0.241630
  H     -1.076560   -1.373830    1.288120
  H     -2.891650   -0.228900    0.055820
  H     -1.883980   -0.120890   -1.393530
  H     -1.376120    1.278280    1.291170
  H     -1.790000    2.067310   -0.227530
  H      0.703530    2.164580    0.302300
  H      0.365020    1.364970   -1.238090
  H      0.920110   -0.026660    1.428000
  H      2.982230    0.833060    0.307200
  H      2.913810   -0.942590    0.250140
  H      2.515460    0.005090   -1.195750

 Total Charge           Charge          ....    0
 Multiplicity           Mult            ....    1
 Number of Electrons    NEL             ....   56
 Basis Dimension        Dim             ....  378

ORBITAL ENERGIES
----------------

  NO   OCC          E(Eh)            E(eV)
   0   2.0000     -20.543006      -559.0036
   1   2.0000     -11.274563      -306.7965
   2   2.0000     -11.268452      -306.6302
   3   2.0000     -11.223313      -305.4019
   4   2.0000     -11.220148      -305.3157
   5   2.0000     -11.218997      -305.2844
   6   2.0000     -11.210064      -305.0413
   7   2.0000      -1.360955       -37.0335
   8   2.0000      -1.072880       -29.1946
   9   2.0000      -1.045897       -28.4603
  10   2.0000      -0.942911       -25.6579
  11   2.0000      -0.866778       -23.5862
  12   2.0000      -0.821903       -22.3651
  13   2.0000      -0.765618       -20.8335
  14   2.0000      -0.655345       -17.8328
  15   2.0000      -0.644984       -17.5509
  16   2.0000      -0.616910       -16.7870
  17   2.0000      -0.609987       -16.5986
  18   2.0000      -0.583408       -15.8753
  19   2.0000      -0.541066       -14.7232
  20   2.0000      -0.535380       -14.5684
  21   2.0000      -0.521116       -14.1803
  22   2.0000      -0.517256       -14.0753
  23   2.0000      -0.481538       -13.1033
  24   2.0000      -0.477215       -12.9857
  25   2.0000      -0.453202       -12.3322
  26   2.0000      -0.441360       -12.0100
  27   2.0000      -0.398921       -10.8552
  28   0.0000       0.142692         3.8828
  29   0.0000       0.157561         4.2875
  30   0.0000       0.160040         4.3549
  31   0.0000       0.172785         4.7017
  32   0.0000       0.200931         5.4676

MULLIKEN ATOMIC CHARGES
-----------------------
   0 C :    0.149644
   1 O :   -0.406232
   2 C :    0.020823
   3 C :   -0.185251
   4 C :   -0.207824
   5 C :   -0.192955
   6 C :   -0.284567
   7 H :    0.106091
   8 H :    0.059865
   9 H :    0.101348
  10 H :    0.089925
  11 H :    0.091107
  12 H :    0.109976
  13 H :    0.105240
  14 H :    0.090198
  15 H :    0.070985
  16 H :    0.082575
  17 H :    0.106872
  18 H :    0.092182
Sum of atomic charges:    0.0000000

LOEWDIN ATOMIC CHARGES
----------------------
   0 C :   -0.135024
   1 O :    0.246343
   2 C :   -0.053824
   3 C :    0.050675
   4 C :    0.055878
   5 C :    0.056943
   6 C :    0.110799
   7 H :   -0.028821
   8 H :   -0.038567
   9 H :   -0.025073
  10 H :   -0.025219
  11 H :   -0.026821
  12 H :   -0.026854
  13 H :   -0.024191
  14 H :   -0.023734
  15 H :   -0.034133
  16 H :   -0.027479
  17 H :   -0.024892
  18 H :   -0.026007

  Mayer bond orders larger than 0.1
B(  0-C ,  1-O ) :   0.9714 B(  0-C ,  5-C ) :   0.9420 B(  0-C ,  6-C ) :   0.9657
B(  0-C , 15-H ) :   0.9803 B(  1-O ,  2-C ) :   0.9962 B(  2-C ,  3-C ) :   0.9520
B(  2-C ,  7-H ) :   0.9903 B(  2-C ,  8-H ) :   0.9840 B(  3-C ,  4-C ) :   0.9469
B(  3-C ,  9-H ) :   0.9867 B(  3-C , 10-H ) :   0.9800 B(  4-C ,  5-C ) :   0.9565
B(  4-C , 11-H ) :   0.9861 B(  4-C , 12-H ) :   0.9931 B(  5-C , 13-H ) :   0.9862
B(  5-C , 14-H ) :   0.9801 B(  6-C , 16-H ) :   0.9808 B(  6-C , 17-H ) :   0.9842
B(  6-C , 18-H ) :   0.9813

E(0)                                       ...   -309.164776575
E(0)                                       ...   -309.164776575
E(CORR)(strong-pairs)                      ...     -1.331266731
E(CORR)(weak-pairs)                        ...     -0.001332423
E(CORR)(corrected)                         ...     -1.332599155
E(TOT)                                     ...   -310.497375730
E(CCSD(T))                                 ...   -310.549829622
FINAL SINGLE POINT ENERGY      -310.549829622235

DIPOLE MOMENT
-------------
                                X             Y             Z
Electronic contribution:     -0.33348      -2.47160      -0.38344
Nuclear contribution   :      0.03184       2.90421       0.65422
                        -----------------------------------------
Total Dipole Moment    :     -0.30164       0.43261       0.27079
                        -----------------------------------------
Magnitude (a.u.)       :      0.59285
Magnitude (Debye)      :      1.50689

Rotational constants in cm-1:     0.146584     0.077033     0.055471
Rotational constants in MHz :  4394.484531  2309.397676  1662.977761

                             ****ORCA TERMINATED NORMALLY****
TOTAL RUN TIME: 0 days 0 hours 9 minutes 59 seconds 449 msec
