                         Program Version 4.1.x  -  STABLE  -
|  1> ! RHF DLPNO-CCSD(T) cc-pVTZ RIJK cc-pVTZ/JK cc-pVTZ/C
|  2> ! KDIIS SOSCF TightSCF TightPNO
|  3>
|  4> %pal nprocs 8 end
|  5>
|  6> %maxcore 8000
|  7>
|  8> %scf maxiter 300
|  9>      shift shift 0.2 erroff 0.1 end
| 10> end
| 11>
| 12> * xyzfile 0 1 2_propylamine_a.xyz
| 13>
| 14>
| 15>                          ****END OF INPUT****

CARTESIAN COORDINATES (ANGSTROEM)
---------------------------------
  C     -1.266910   -0.700640   -0.096220
  C     -0.000000    0.026180    0.362630
  N      0.000100    1.385530   -0.201740
  C      1.266800   -0.700820   -0.096210
  H     -2.168750   -0.172720    0.236670
  H     -1.295110   -0.762300   -1.189600
  H     -1.304870   -1.715290    0.314690
  H     -0.000010    0.039670    1.468180
  H      2.168720   -0.173100    0.236750
  H      1.304570   -1.715510    0.314650
  H      1.295020   -0.762420   -1.189590
  H     -0.819150    1.907430    0.099720
  H      0.819570    1.907210    0.099500

 Total Charge           Charge          ....    0
 Multiplicity           Mult            ....    1
 Number of Electrons    NEL             ....   34
 Basis Dimension        Dim             ....  246

ORBITAL ENERGIES
----------------

  NO   OCC          E(Eh)            E(eV)
   0   2.0000     -15.531495      -422.6335
   1   2.0000     -11.253121      -306.2130
   2   2.0000     -11.209820      -305.0347
   3   2.0000     -11.209805      -305.0343
   4   2.0000      -1.176070       -32.0025
   5   2.0000      -1.008645       -27.4466
   6   2.0000      -0.928468       -25.2649
   7   2.0000      -0.777701       -21.1623
   8   2.0000      -0.646844       -17.6015
   9   2.0000      -0.646728       -17.5984
  10   2.0000      -0.594278       -16.1711
  11   2.0000      -0.535911       -14.5829
  12   2.0000      -0.525334       -14.2951
  13   2.0000      -0.504323       -13.7233
  14   2.0000      -0.487741       -13.2721
  15   2.0000      -0.471771       -12.8375
  16   2.0000      -0.384235       -10.4556
  17   0.0000       0.135704         3.6927
  18   0.0000       0.176874         4.8130
  19   0.0000       0.178612         4.8603
  20   0.0000       0.190208         5.1758
  21   0.0000       0.212840         5.7917

MULLIKEN ATOMIC CHARGES
-----------------------
   0 C :   -0.279260
   1 C :    0.054475
   2 N :   -0.388977
   3 C :   -0.279272
   4 H :    0.086753
   5 H :    0.096674
   6 H :    0.086923
   7 H :    0.075885
   8 H :    0.086759
   9 H :    0.086920
  10 H :    0.096679
  11 H :    0.138220
  12 H :    0.138220
Sum of atomic charges:    0.0000000

LOEWDIN ATOMIC CHARGES
----------------------
   0 C :    0.106487
   1 C :   -0.100873
   2 N :    0.321166
   3 C :    0.106485
   4 H :   -0.031953
   5 H :   -0.026697
   6 H :   -0.028968
   7 H :   -0.041923
   8 H :   -0.031958
   9 H :   -0.028959
  10 H :   -0.026697
  11 H :   -0.108054
  12 H :   -0.108056

  Mayer bond orders larger than 0.1
B(  0-C ,  1-C ) :   0.9494 B(  0-C ,  4-H ) :   0.9856 B(  0-C ,  5-H ) :   0.9777
B(  0-C ,  6-H ) :   0.9838 B(  1-C ,  2-N ) :   0.9573 B(  1-C ,  3-C ) :   0.9494
B(  1-C ,  7-H ) :   0.9872 B(  2-N , 11-H ) :   0.9861 B(  2-N , 12-H ) :   0.9861
B(  3-C ,  8-H ) :   0.9856 B(  3-C ,  9-H ) :   0.9838 B(  3-C , 10-H ) :   0.9777

E(0)                                       ...   -173.354247879
E(0)                                       ...   -173.354247879
E(CORR)(strong-pairs)                      ...     -0.798530728
E(CORR)(weak-pairs)                        ...     -0.000578173
E(CORR)(corrected)                         ...     -0.799108901
E(TOT)                                     ...   -174.153356780
E(CCSD(T))                                 ...   -174.182686432
FINAL SINGLE POINT ENERGY      -174.182686432284

DIPOLE MOMENT
-------------
                                X             Y             Z
Electronic contribution:      0.00011       1.62638       0.07433
Nuclear contribution   :     -0.00002      -1.55434       0.42106
                        -----------------------------------------
Total Dipole Moment    :      0.00009       0.07204       0.49539
                        -----------------------------------------
Magnitude (a.u.)       :      0.50060
Magnitude (Debye)      :      1.27243

Rotational constants in cm-1:     0.276874     0.263795     0.154113
Rotational constants in MHz :  8300.483125  7908.376326  4620.181069

                             ****ORCA TERMINATED NORMALLY****
TOTAL RUN TIME: 0 days 0 hours 2 minutes 41 seconds 716 msec
