                         Program Version 4.1.x  -  STABLE  -
|  1> ! RHF DLPNO-CCSD(T) cc-pVTZ RIJK cc-pVTZ/JK cc-pVTZ/C
|  2> ! KDIIS SOSCF TightSCF TightPNO
|  3>
|  4> %pal nprocs 8 end
|  5>
|  6> %maxcore 8000
|  7>
|  8> %scf maxiter 300
|  9>      shift shift 0.2 erroff 0.1 end
| 10> end
| 11>
| 12> * xyzfile 0 1 2_propylamine_g.xyz
| 13>
| 14>
| 15>                          ****END OF INPUT****

CARTESIAN COORDINATES (ANGSTROEM)
---------------------------------
  C      1.362920   -0.497720    0.082740
  C     -0.002810    0.027050   -0.369520
  N     -0.135710    1.430530    0.053590
  C     -1.145120   -0.884880    0.111710
  H      2.165310    0.139020   -0.300590
  H      1.430810   -0.507150    1.178800
  H      1.527930   -1.521980   -0.267940
  H     -0.015440    0.038720   -1.468180
  H     -2.118190   -0.505040   -0.221120
  H     -1.033650   -1.905570   -0.274190
  H     -1.162060   -0.938860    1.207970
  H     -1.025550    1.819610   -0.248950
  H     -0.109190    1.500840    1.069470

 Total Charge           Charge          ....    0
 Multiplicity           Mult            ....    1
 Number of Electrons    NEL             ....   34
 Basis Dimension        Dim             ....  246

ORBITAL ENERGIES
----------------

  NO   OCC          E(Eh)            E(eV)
   0   2.0000     -15.531656      -422.6379
   1   2.0000     -11.253496      -306.2232
   2   2.0000     -11.212875      -305.1178
   3   2.0000     -11.209823      -305.0348
   4   2.0000      -1.176217       -32.0065
   5   2.0000      -1.008171       -27.4337
   6   2.0000      -0.928797       -25.2738
   7   2.0000      -0.787082       -21.4176
   8   2.0000      -0.662320       -18.0226
   9   2.0000      -0.606497       -16.5036
  10   2.0000      -0.592830       -16.1317
  11   2.0000      -0.558052       -15.1854
  12   2.0000      -0.533690       -14.5224
  13   2.0000      -0.509024       -13.8513
  14   2.0000      -0.483413       -13.1543
  15   2.0000      -0.469626       -12.7792
  16   2.0000      -0.384225       -10.4553
  17   0.0000       0.135518         3.6876
  18   0.0000       0.172656         4.6982
  19   0.0000       0.176583         4.8051
  20   0.0000       0.188225         5.1219
  21   0.0000       0.211536         5.7562

MULLIKEN ATOMIC CHARGES
-----------------------
   0 C :   -0.282236
   1 C :    0.046882
   2 N :   -0.382577
   3 C :   -0.278461
   4 H :    0.109729
   5 H :    0.078375
   6 H :    0.088416
   7 H :    0.095239
   8 H :    0.088202
   9 H :    0.086722
  10 H :    0.079777
  11 H :    0.136533
  12 H :    0.133400
Sum of atomic charges:    0.0000000

LOEWDIN ATOMIC CHARGES
----------------------
   0 C :    0.106568
   1 C :   -0.100819
   2 N :    0.321820
   3 C :    0.098728
   4 H :   -0.025869
   5 H :   -0.031765
   6 H :   -0.029051
   7 H :   -0.027588
   8 H :   -0.033658
   9 H :   -0.028699
  10 H :   -0.032826
  11 H :   -0.108841
  12 H :   -0.108001

  Mayer bond orders larger than 0.1
B(  0-C ,  1-C ) :   0.9557 B(  0-C ,  4-H ) :   0.9828 B(  0-C ,  5-H ) :   0.9780
B(  0-C ,  6-H ) :   0.9837 B(  1-C ,  2-N ) :   0.9764 B(  1-C ,  3-C ) :   0.9645
B(  1-C ,  7-H ) :   0.9820 B(  2-N , 11-H ) :   0.9967 B(  2-N , 12-H ) :   0.9938
B(  3-C ,  8-H ) :   0.9845 B(  3-C ,  9-H ) :   0.9761 B(  3-C , 10-H ) :   0.9750

E(0)                                       ...   -173.353632992
E(0)                                       ...   -173.353632992
E(CORR)(strong-pairs)                      ...     -0.798599040
E(CORR)(weak-pairs)                        ...     -0.000571675
E(CORR)(corrected)                         ...     -0.799170715
E(TOT)                                     ...   -174.152803707
E(CCSD(T))                                 ...   -174.182193413
FINAL SINGLE POINT ENERGY      -174.182193412954

DIPOLE MOMENT
-------------
                                X             Y             Z
Electronic contribution:     -0.00989       1.77561      -0.56530
Nuclear contribution   :     -0.36815      -2.02220       0.72979
                        -----------------------------------------
Total Dipole Moment    :     -0.37805      -0.24659       0.16449
                        -----------------------------------------
Magnitude (a.u.)       :      0.48040
Magnitude (Debye)      :      1.22107

Rotational constants in cm-1:     0.270858     0.262653     0.153923
Rotational constants in MHz :  8120.120467  7874.142121  4614.500841

                             ****ORCA TERMINATED NORMALLY****
TOTAL RUN TIME: 0 days 0 hours 2 minutes 41 seconds 60 msec
