                         Program Version 4.1.x  -  STABLE  -
|  1> ! RHF DLPNO-CCSD(T) cc-pVTZ RIJK cc-pVTZ/JK cc-pVTZ/C
|  2> ! KDIIS SOSCF TightSCF TightPNO
|  3>
|  4> %pal nprocs 8 end
|  5>
|  6> %maxcore 8000
|  7>
|  8> %scf maxiter 300
|  9>      shift shift 0.2 erroff 0.1 end
| 10> end
| 11>
| 12> * xyzfile 0 1 2_propanethiol_a.xyz
| 13>
| 14>
| 15>                          ****END OF INPUT****

CARTESIAN COORDINATES (ANGSTROEM)
---------------------------------
  C     -1.099860   -1.273050    0.112230
  C     -0.413500    0.000000   -0.390360
  C     -1.099830    1.273070    0.112230
  S      1.406010   -0.000010   -0.018810
  H      1.287180   -0.000050    1.326340
  H     -2.151670   -1.284680   -0.200050
  H     -0.612540   -2.170010   -0.278630
  H     -0.421620   -0.000010   -1.486860
  H     -0.612500    2.170010   -0.278630
  H     -1.077050    1.323760    1.207140
  H     -2.151650    1.284710   -0.200040
  H     -1.077090   -1.323740    1.207140

 Total Charge           Charge          ....    0
 Multiplicity           Mult            ....    1
 Number of Electrons    NEL             ....   42
 Basis Dimension        Dim             ....  236

ORBITAL ENERGIES
----------------

  NO   OCC          E(Eh)            E(eV)
   0   2.0000     -91.943915     -2501.9211
   1   2.0000     -11.272220      -306.7327
   2   2.0000     -11.225552      -305.4628
   3   2.0000     -11.225535      -305.4624
   4   2.0000      -8.945830      -243.4284
   5   2.0000      -6.627112      -180.3329
   6   2.0000      -6.626042      -180.3038
   7   2.0000      -6.625135      -180.2791
   8   2.0000      -1.089970       -29.6596
   9   2.0000      -0.940632       -25.5959
  10   2.0000      -0.937854       -25.5203
  11   2.0000      -0.785489       -21.3742
  12   2.0000      -0.629700       -17.1350
  13   2.0000      -0.601476       -16.3670
  14   2.0000      -0.573531       -15.6066
  15   2.0000      -0.545123       -14.8335
  16   2.0000      -0.529447       -14.4070
  17   2.0000      -0.497200       -13.5295
  18   2.0000      -0.481527       -13.1030
  19   2.0000      -0.432960       -11.7814
  20   2.0000      -0.353270        -9.6130
  21   0.0000       0.128288         3.4909
  22   0.0000       0.160113         4.3569
  23   0.0000       0.170055         4.6274
  24   0.0000       0.181197         4.9306
  25   0.0000       0.189832         5.1656

MULLIKEN ATOMIC CHARGES
-----------------------
   0 C :   -0.267866
   1 C :   -0.059140
   2 C :   -0.267863
   3 S :   -0.201464
   4 H :    0.084565
   5 H :    0.095483
   6 H :    0.115025
   7 H :    0.112784
   8 H :    0.115030
   9 H :    0.088984
  10 H :    0.095478
  11 H :    0.088984
Sum of atomic charges:   -0.0000000

LOEWDIN ATOMIC CHARGES
----------------------
   0 C :    0.090333
   1 C :   -0.167930
   2 C :    0.090334
   3 S :    0.338858
   4 H :   -0.154979
   5 H :   -0.026566
   6 H :   -0.025956
   7 H :   -0.034593
   8 H :   -0.025962
   9 H :   -0.028487
  10 H :   -0.026563
  11 H :   -0.028487

  Mayer bond orders larger than 0.1
B(  0-C ,  1-C ) :   0.9493 B(  0-C ,  5-H ) :   0.9763 B(  0-C ,  6-H ) :   0.9810
B(  0-C , 11-H ) :   0.9765 B(  1-C ,  2-C ) :   0.9493 B(  1-C ,  3-S ) :   0.9797
B(  1-C ,  7-H ) :   0.9734 B(  2-C ,  8-H ) :   0.9810 B(  2-C ,  9-H ) :   0.9765
B(  2-C , 10-H ) :   0.9763 B(  3-S ,  4-H ) :   1.0069

E(0)                                       ...   -515.852757479
E(0)                                       ...   -515.852757479
E(CORR)(strong-pairs)                      ...     -0.767945775
E(CORR)(weak-pairs)                        ...     -0.000509394
E(CORR)(corrected)                         ...     -0.768455168
E(TOT)                                     ...   -516.621212648
E(CCSD(T))                                 ...   -516.651599768
FINAL SINGLE POINT ENERGY      -516.651599767996

DIPOLE MOMENT
-------------
                                X             Y             Z
Electronic contribution:      6.40384      -0.00000      -1.19693
Nuclear contribution   :     -7.10555      -0.00000       1.34334
                        -----------------------------------------
Total Dipole Moment    :     -0.70171      -0.00000       0.14641
                        -----------------------------------------
Magnitude (a.u.)       :      0.71682
Magnitude (Debye)      :      1.82202

Rotational constants in cm-1:     0.261046     0.143522     0.103137
Rotational constants in MHz :  7825.950785  4302.692257  3091.959401

                             ****ORCA TERMINATED NORMALLY****
TOTAL RUN TIME: 0 days 0 hours 2 minutes 24 seconds 972 msec
