                         Program Version 4.1.x  -  STABLE  -
|  1> ! RHF DLPNO-CCSD(T) cc-pVTZ RIJK cc-pVTZ/JK cc-pVTZ/C
|  2> ! KDIIS SOSCF TightSCF TightPNO
|  3>
|  4> %pal nprocs 8 end
|  5>
|  6> %maxcore 8000
|  7>
|  8> %scf maxiter 300
|  9>      shift shift 0.2 erroff 0.1 end
| 10> end
| 11>
| 12> * xyzfile 0 1 2_propanol_g.xyz
| 13>
| 14>
| 15>                          ****END OF INPUT****

CARTESIAN COORDINATES (ANGSTROEM)
---------------------------------
  C     -1.328800   -0.557240   -0.089740
  C     -0.001900    0.037970    0.364300
  O      0.041590    1.374420   -0.163150
  C      1.203480   -0.779460   -0.103250
  H     -2.161650    0.066140    0.248370
  H     -1.364880   -0.614790   -1.183030
  H     -1.459400   -1.565070    0.317990
  H      0.005930    0.088330    1.465280
  H      2.144610   -0.322390    0.226620
  H      1.168590   -1.795380    0.306300
  H      1.219260   -0.844480   -1.196630
  H      0.878110    1.784710    0.092420

 Total Charge           Charge          ....    0
 Multiplicity           Mult            ....    1
 Number of Electrons    NEL             ....   34
 Basis Dimension        Dim             ....  232

ORBITAL ENERGIES
----------------

  NO   OCC          E(Eh)            E(eV)
   0   2.0000     -20.547048      -559.1136
   1   2.0000     -11.280583      -306.9603
   2   2.0000     -11.218517      -305.2714
   3   2.0000     -11.211456      -305.0792
   4   2.0000      -1.348587       -36.6969
   5   2.0000      -1.039208       -28.2783
   6   2.0000      -0.936976       -25.4964
   7   2.0000      -0.796685       -21.6789
   8   2.0000      -0.689333       -18.7577
   9   2.0000      -0.623903       -16.9773
  10   2.0000      -0.601094       -16.3566
  11   2.0000      -0.544576       -14.8187
  12   2.0000      -0.532178       -14.4813
  13   2.0000      -0.524867       -14.2824
  14   2.0000      -0.508640       -13.8408
  15   2.0000      -0.470719       -12.8089
  16   2.0000      -0.434699       -11.8288
  17   0.0000       0.133769         3.6401
  18   0.0000       0.172605         4.6968
  19   0.0000       0.182041         4.9536
  20   0.0000       0.192509         5.2384
  21   0.0000       0.208385         5.6705

MULLIKEN ATOMIC CHARGES
-----------------------
   0 C :   -0.275552
   1 C :    0.156032
   2 O :   -0.428447
   3 C :   -0.283167
   4 H :    0.106228
   5 H :    0.092362
   6 H :    0.080541
   7 H :    0.068315
   8 H :    0.082760
   9 H :    0.087020
  10 H :    0.097084
  11 H :    0.216823
Sum of atomic charges:   -0.0000000

LOEWDIN ATOMIC CHARGES
----------------------
   0 C :    0.109189
   1 C :   -0.129374
   2 O :    0.311552
   3 C :    0.102916
   4 H :   -0.024610
   5 H :   -0.025812
   6 H :   -0.028258
   7 H :   -0.037067
   8 H :   -0.032596
   9 H :   -0.025697
  10 H :   -0.025946
  11 H :   -0.194295

  Mayer bond orders larger than 0.1
B(  0-C ,  1-C ) :   0.9539 B(  0-C ,  4-H ) :   0.9828 B(  0-C ,  5-H ) :   0.9794
B(  0-C ,  6-H ) :   0.9798 B(  1-C ,  2-O ) :   0.9816 B(  1-C ,  3-C ) :   0.9595
B(  1-C ,  7-H ) :   0.9835 B(  2-O , 11-H ) :   0.9933 B(  3-C ,  8-H ) :   0.9839
B(  3-C ,  9-H ) :   0.9741 B(  3-C , 10-H ) :   0.9773

E(0)                                       ...   -193.194011672
E(0)                                       ...   -193.194011672
E(CORR)(strong-pairs)                      ...     -0.816111268
E(CORR)(weak-pairs)                        ...     -0.000562922
E(CORR)(corrected)                         ...     -0.816674190
E(TOT)                                     ...   -194.010685862
E(CCSD(T))                                 ...   -194.039880350
FINAL SINGLE POINT ENERGY      -194.039880350117

DIPOLE MOMENT
-------------
                                X             Y             Z
Electronic contribution:      0.01009       3.05624       0.06247
Nuclear contribution   :      0.45820      -3.38024       0.29194
                        -----------------------------------------
Total Dipole Moment    :      0.46830      -0.32400       0.35441
                        -----------------------------------------
Magnitude (a.u.)       :      0.67073
Magnitude (Debye)      :      1.70486

Rotational constants in cm-1:     0.287096     0.266215     0.157670
Rotational constants in MHz :  8606.922651  7980.927157  4726.820759

                             ****ORCA TERMINATED NORMALLY****
TOTAL RUN TIME: 0 days 0 hours 2 minutes 5 seconds 976 msec
