                         Program Version 4.1.x  -  STABLE  -
|  1> ! RHF DLPNO-CCSD(T) cc-pVTZ RIJK cc-pVTZ/JK cc-pVTZ/C
|  2> ! KDIIS SOSCF TightSCF TightPNO
|  3>
|  4> %pal nprocs 8 end
|  5>
|  6> %maxcore 8000
|  7>
|  8> %scf maxiter 300
|  9>      shift shift 0.2 erroff 0.1 end
| 10> end
| 11>
| 12> * xyzfile 0 1 2_propanethiol_g.xyz
| 13>
| 14>
| 15>                          ****END OF INPUT****

CARTESIAN COORDINATES (ANGSTROEM)
---------------------------------
  C     -1.092740    1.275780   -0.142000
  C     -0.417740    0.015930    0.402310
  C     -1.095460   -1.265480   -0.091460
  S      1.373370   -0.082740   -0.089900
  H      1.745340    1.113040    0.411560
  H     -2.145330    1.300620    0.168000
  H     -0.613340    2.186140    0.232260
  H     -0.443270    0.030180    1.497110
  H     -0.619690   -2.159090    0.323930
  H     -1.059300   -1.332850   -1.184490
  H     -2.148030   -1.268690    0.213100
  H     -1.054700    1.297220   -1.236060

 Total Charge           Charge          ....    0
 Multiplicity           Mult            ....    1
 Number of Electrons    NEL             ....   42
 Basis Dimension        Dim             ....  236

ORBITAL ENERGIES
----------------

  NO   OCC          E(Eh)            E(eV)
   0   2.0000     -91.943426     -2501.9078
   1   2.0000     -11.271441      -306.7115
   2   2.0000     -11.226807      -305.4969
   3   2.0000     -11.226012      -305.4753
   4   2.0000      -8.945383      -243.4162
   5   2.0000      -6.626653      -180.3204
   6   2.0000      -6.625601      -180.2918
   7   2.0000      -6.624670      -180.2664
   8   2.0000      -1.090576       -29.6761
   9   2.0000      -0.941976       -25.6325
  10   2.0000      -0.937441       -25.5091
  11   2.0000      -0.780505       -21.2386
  12   2.0000      -0.637259       -17.3407
  13   2.0000      -0.604502       -16.4493
  14   2.0000      -0.578240       -15.7347
  15   2.0000      -0.547217       -14.8905
  16   2.0000      -0.511315       -13.9136
  17   2.0000      -0.499505       -13.5922
  18   2.0000      -0.486078       -13.2269
  19   2.0000      -0.433082       -11.7848
  20   2.0000      -0.352953        -9.6043
  21   0.0000       0.125392         3.4121
  22   0.0000       0.169154         4.6029
  23   0.0000       0.175513         4.7760
  24   0.0000       0.180807         4.9200
  25   0.0000       0.183372         4.9898

MULLIKEN ATOMIC CHARGES
-----------------------
   0 C :   -0.270632
   1 C :   -0.059421
   2 C :   -0.288241
   3 S :   -0.199712
   4 H :    0.085544
   5 H :    0.094434
   6 H :    0.099694
   7 H :    0.123085
   8 H :    0.113247
   9 H :    0.102378
  10 H :    0.096909
  11 H :    0.102715
Sum of atomic charges:   -0.0000000

LOEWDIN ATOMIC CHARGES
----------------------
   0 C :    0.090098
   1 C :   -0.161842
   2 C :    0.090150
   3 S :    0.334200
   4 H :   -0.155317
   5 H :   -0.026117
   6 H :   -0.029247
   7 H :   -0.039796
   8 H :   -0.025561
   9 H :   -0.025813
  10 H :   -0.025344
  11 H :   -0.025411

  Mayer bond orders larger than 0.1
B(  0-C ,  1-C ) :   0.9459 B(  0-C ,  5-H ) :   0.9760 B(  0-C ,  6-H ) :   0.9837
B(  0-C , 11-H ) :   0.9751 B(  1-C ,  2-C ) :   0.9508 B(  1-C ,  3-S ) :   0.9872
B(  1-C ,  7-H ) :   0.9764 B(  2-C ,  8-H ) :   0.9824 B(  2-C ,  9-H ) :   0.9764
B(  2-C , 10-H ) :   0.9776 B(  3-S ,  4-H ) :   1.0122

E(0)                                       ...   -515.852799787
E(0)                                       ...   -515.852799787
E(CORR)(strong-pairs)                      ...     -0.767832445
E(CORR)(weak-pairs)                        ...     -0.000512101
E(CORR)(corrected)                         ...     -0.768344547
E(TOT)                                     ...   -516.621144334
E(CCSD(T))                                 ...   -516.651492670
FINAL SINGLE POINT ENERGY      -516.651492670284

DIPOLE MOMENT
-------------
                                X             Y             Z
Electronic contribution:      6.00408      -0.91985      -0.16645
Nuclear contribution   :     -6.60875       1.21089       0.44347
                        -----------------------------------------
Total Dipole Moment    :     -0.60467       0.29104       0.27702
                        -----------------------------------------
Magnitude (a.u.)       :      0.72600
Magnitude (Debye)      :      1.84533

Rotational constants in cm-1:     0.260765     0.147105     0.103445
Rotational constants in MHz :  7817.552615  4410.084293  3101.203953

                             ****ORCA TERMINATED NORMALLY****
TOTAL RUN TIME: 0 days 0 hours 2 minutes 57 seconds 619 msec
