                         Program Version 4.1.x  -  STABLE  -
|  1> ! RHF DLPNO-CCSD(T) cc-pVTZ RIJK cc-pVTZ/JK cc-pVTZ/C
|  2> ! KDIIS SOSCF TightSCF TightPNO
|  3>
|  4> %pal nprocs 8 end
|  5>
|  6> %maxcore 8000
|  7>
|  8> %scf maxiter 300
|  9>      shift shift 0.2 erroff 0.1 end
| 10> end
| 11>
| 12> * xyzfile 0 1 2_propanol_a.xyz
| 13>
| 14>
| 15>                          ****END OF INPUT****

CARTESIAN COORDINATES (ANGSTROEM)
---------------------------------
  C      1.272970   -0.669460    0.099250
  C     -0.000080    0.036910   -0.370450
  O      0.000800    1.418210    0.022060
  C     -1.273980   -0.667780    0.099510
  H      2.159480   -0.129790   -0.246620
  H      1.307960   -0.721850    1.195520
  H      1.318510   -1.695180   -0.283890
  H     -0.000150    0.080360   -1.465660
  H     -2.159740   -0.126590   -0.245890
  H     -1.321230   -1.693300   -0.283980
  H     -1.308700   -0.720370    1.195780
  H      0.004040    1.463020    0.988420

 Total Charge           Charge          ....    0
 Multiplicity           Mult            ....    1
 Number of Electrons    NEL             ....   34
 Basis Dimension        Dim             ....  232

ORBITAL ENERGIES
----------------

  NO   OCC          E(Eh)            E(eV)
   0   2.0000     -20.547110      -559.1153
   1   2.0000     -11.280462      -306.9570
   2   2.0000     -11.217639      -305.2475
   3   2.0000     -11.217574      -305.2457
   4   2.0000      -1.348890       -36.7052
   5   2.0000      -1.038879       -28.2693
   6   2.0000      -0.937967       -25.5234
   7   2.0000      -0.811621       -22.0853
   8   2.0000      -0.657423       -17.8894
   9   2.0000      -0.635265       -17.2864
  10   2.0000      -0.597225       -16.2513
  11   2.0000      -0.574523       -15.6336
  12   2.0000      -0.542378       -14.7589
  13   2.0000      -0.512650       -13.9499
  14   2.0000      -0.508774       -13.8445
  15   2.0000      -0.467818       -12.7300
  16   2.0000      -0.436191       -11.8694
  17   0.0000       0.134676         3.6647
  18   0.0000       0.167307         4.5527
  19   0.0000       0.181700         4.9443
  20   0.0000       0.195957         5.3323
  21   0.0000       0.206039         5.6066

MULLIKEN ATOMIC CHARGES
-----------------------
   0 C :   -0.283249
   1 C :    0.144579
   2 O :   -0.435036
   3 C :   -0.283076
   4 H :    0.109457
   5 H :    0.075093
   6 H :    0.086676
   7 H :    0.096140
   8 H :    0.109424
   9 H :    0.086609
  10 H :    0.075100
  11 H :    0.218284
Sum of atomic charges:   -0.0000000

LOEWDIN ATOMIC CHARGES
----------------------
   0 C :    0.103106
   1 C :   -0.130693
   2 O :    0.310232
   3 C :    0.103108
   4 H :   -0.025360
   5 H :   -0.032185
   6 H :   -0.026147
   7 H :   -0.024971
   8 H :   -0.025357
   9 H :   -0.026182
  10 H :   -0.032176
  11 H :   -0.193375

  Mayer bond orders larger than 0.1
B(  0-C ,  1-C ) :   0.9629 B(  0-C ,  4-H ) :   0.9830 B(  0-C ,  5-H ) :   0.9755
B(  0-C ,  6-H ) :   0.9740 B(  1-C ,  2-O ) :   0.9698 B(  1-C ,  3-C ) :   0.9628
B(  1-C ,  7-H ) :   0.9799 B(  2-O , 11-H ) :   0.9897 B(  3-C ,  8-H ) :   0.9830
B(  3-C ,  9-H ) :   0.9740 B(  3-C , 10-H ) :   0.9754

E(0)                                       ...   -193.193545588
E(0)                                       ...   -193.193545588
E(CORR)(strong-pairs)                      ...     -0.816282195
E(CORR)(weak-pairs)                        ...     -0.000562635
E(CORR)(corrected)                         ...     -0.816844830
E(TOT)                                     ...   -194.010390418
E(CCSD(T))                                 ...   -194.039654375
FINAL SINGLE POINT ENERGY      -194.039654374875

DIPOLE MOMENT
-------------
                                X             Y             Z
Electronic contribution:      0.00150       3.17144      -0.54150
Nuclear contribution   :      0.00019      -3.74157       0.90743
                        -----------------------------------------
Total Dipole Moment    :      0.00169      -0.57013       0.36594
                        -----------------------------------------
Magnitude (a.u.)       :      0.67746
Magnitude (Debye)      :      1.72198

Rotational constants in cm-1:     0.281141     0.265419     0.157411
Rotational constants in MHz :  8428.409077  7957.051928  4719.050292

                             ****ORCA TERMINATED NORMALLY****
TOTAL RUN TIME: 0 days 0 hours 2 minutes 4 seconds 971 msec
