                         Program Version 4.1.x  -  STABLE  -
|  1> ! RHF DLPNO-CCSD(T) cc-pVTZ RIJK cc-pVTZ/JK cc-pVTZ/C
|  2> ! KDIIS SOSCF TightSCF TightPNO
|  3>
|  4> %pal nprocs 8 end
|  5>
|  6> %maxcore 8000
|  7>
|  8> %scf maxiter 300
|  9>      shift shift 0.2 erroff 0.1 end
| 10> end
| 11>
| 12> * xyzfile 0 1 3_3_Dimethyl_N_methylpyrrolidine_NI.xyz
| 13>
| 14>
| 15>                          ****END OF INPUT****

CARTESIAN COORDINATES (ANGSTROEM)
---------------------------------
  C     -1.020750   -0.092930   -0.005890
  C     -0.506800    1.312780   -0.383580
  C      0.984300    1.275770   -0.011260
  C      0.194290   -0.976600   -0.352120
  N      1.317920   -0.117940   -0.104210
  C      2.654210   -0.615680    0.041940
  H     -1.063690    2.133650    0.125970
  H     -0.603270    1.461760   -1.485360
  C     -2.275050   -0.493930   -0.796890
  C     -1.322630   -0.162700    1.504600
  H      1.153850    1.618270    1.036130
  H      1.605030    1.885180   -0.709200
  H      0.203600   -1.254620   -1.431420
  H      0.242040   -1.900780    0.268750
  H      2.858270   -1.388940   -0.732910
  H      3.395850    0.206750   -0.073780
  H      2.770000   -1.067030    1.053160
  H     -2.098640   -0.454440   -1.895910
  H     -3.123970    0.190170   -0.568890
  H     -2.589110   -1.532560   -0.545350
  H     -2.138630    0.542400    1.783230
  H     -0.432980    0.091290    2.124010
  H     -1.649250   -1.185770    1.800230

 Total Charge           Charge          ....    0
 Multiplicity           Mult            ....    1
 Number of Electrons    NEL             ....   64
 Basis Dimension        Dim             ....  450

ORBITAL ENERGIES
----------------

  NO   OCC          E(Eh)            E(eV)
   0   2.0000     -15.515851      -422.2078
   1   2.0000     -11.245545      -306.0068
   2   2.0000     -11.245260      -305.9991
   3   2.0000     -11.242965      -305.9366
   4   2.0000     -11.233575      -305.6811
   5   2.0000     -11.220669      -305.3299
   6   2.0000     -11.217529      -305.2445
   7   2.0000     -11.216570      -305.2184
   8   2.0000      -1.231926       -33.5224
   9   2.0000      -1.084275       -29.5046
  10   2.0000      -0.991602       -26.9829
  11   2.0000      -0.939139       -25.5553
  12   2.0000      -0.921267       -25.0690
  13   2.0000      -0.872492       -23.7417
  14   2.0000      -0.766032       -20.8448
  15   2.0000      -0.735481       -20.0134
  16   2.0000      -0.655620       -17.8403
  17   2.0000      -0.641556       -17.4576
  18   2.0000      -0.603334       -16.4175
  19   2.0000      -0.593472       -16.1492
  20   2.0000      -0.569025       -15.4840
  21   2.0000      -0.564495       -15.3607
  22   2.0000      -0.553706       -15.0671
  23   2.0000      -0.528842       -14.3905
  24   2.0000      -0.510331       -13.8868
  25   2.0000      -0.504612       -13.7312
  26   2.0000      -0.492895       -13.4124
  27   2.0000      -0.491557       -13.3759
  28   2.0000      -0.452393       -12.3102
  29   2.0000      -0.448328       -12.1996
  30   2.0000      -0.440431       -11.9847
  31   2.0000      -0.308550        -8.3961
  32   0.0000       0.131273         3.5721
  33   0.0000       0.153990         4.1903
  34   0.0000       0.173371         4.7177
  35   0.0000       0.176023         4.7898
  36   0.0000       0.189327         5.1519

MULLIKEN ATOMIC CHARGES
-----------------------
   0 C :    0.018013
   1 C :   -0.174780
   2 C :   -0.098740
   3 C :   -0.051280
   4 N :   -0.190788
   5 C :   -0.170388
   6 H :    0.096977
   7 H :    0.089959
   8 C :   -0.290912
   9 C :   -0.307874
  10 H :    0.061524
  11 H :    0.077084
  12 H :    0.065476
  13 H :    0.071395
  14 H :    0.075628
  15 H :    0.085167
  16 H :    0.070502
  17 H :    0.092076
  18 H :    0.094728
  19 H :    0.094043
  20 H :    0.093686
  21 H :    0.103692
  22 H :    0.094814
Sum of atomic charges:    0.0000000

LOEWDIN ATOMIC CHARGES
----------------------
   0 C :   -0.114568
   1 C :    0.068005
   2 C :   -0.027784
   3 C :   -0.013494
   4 N :    0.261295
   5 C :    0.020883
   6 H :   -0.019762
   7 H :   -0.017214
   8 C :    0.102397
   9 C :    0.106096
  10 H :   -0.042217
  11 H :   -0.032956
  12 H :   -0.036379
  13 H :   -0.026576
  14 H :   -0.030998
  15 H :   -0.022826
  16 H :   -0.041105
  17 H :   -0.023544
  18 H :   -0.021540
  19 H :   -0.021508
  20 H :   -0.023121
  21 H :   -0.019849
  22 H :   -0.023235

  Mayer bond orders larger than 0.1
B(  0-C ,  1-C ) :   0.9502 B(  0-C ,  3-C ) :   0.9599 B(  0-C ,  8-C ) :   0.9592
B(  0-C ,  9-C ) :   0.9474 B(  1-C ,  2-C ) :   0.9689 B(  1-C ,  6-H ) :   0.9904
B(  1-C ,  7-H ) :   0.9907 B(  2-C ,  4-N ) :   1.0212 B(  2-C , 10-H ) :   0.9716
B(  2-C , 11-H ) :   0.9790 B(  3-C ,  4-N ) :   1.0203 B(  3-C , 12-H ) :   0.9799
B(  3-C , 13-H ) :   0.9708 B(  4-N ,  5-C ) :   0.9992 B(  5-C , 14-H ) :   0.9756
B(  5-C , 15-H ) :   0.9826 B(  5-C , 16-H ) :   0.9706 B(  8-C , 17-H ) :   0.9832
B(  8-C , 18-H ) :   0.9841 B(  8-C , 19-H ) :   0.9842 B(  9-C , 20-H ) :   0.9851
B(  9-C , 21-H ) :   0.9823 B(  9-C , 22-H ) :   0.9857

E(0)                                       ...   -328.340994938
E(0)                                       ...   -328.340994938
E(CORR)(strong-pairs)                      ...     -1.502869242
E(CORR)(weak-pairs)                        ...     -0.001754385
E(CORR)(corrected)                         ...     -1.504623626
E(TOT)                                     ...   -329.845618565
E(CCSD(T))                                 ...   -329.906485513
FINAL SINGLE POINT ENERGY      -329.906485512547

DIPOLE MOMENT
-------------
                                X             Y             Z
Electronic contribution:      1.51414       0.73482      -0.81576
Nuclear contribution   :     -1.55353      -0.69585       0.79426
                        -----------------------------------------
Total Dipole Moment    :     -0.03940       0.03897      -0.02150
                        -----------------------------------------
Magnitude (a.u.)       :      0.05944
Magnitude (Debye)      :      0.15109

Rotational constants in cm-1:     0.114985     0.049197     0.045937
Rotational constants in MHz :  3447.164852  1474.898916  1377.145317

                             ****ORCA TERMINATED NORMALLY****
TOTAL RUN TIME: 0 days 0 hours 23 minutes 40 seconds 112 msec
