                         Program Version 4.1.x  -  STABLE  -
|  1> ! RHF DLPNO-CCSD(T) cc-pVTZ RIJK cc-pVTZ/JK cc-pVTZ/C
|  2> ! KDIIS SOSCF TightSCF TightPNO
|  3>
|  4> %pal nprocs 8 end
|  5>
|  6> %maxcore 8000
|  7>
|  8> %scf maxiter 300
|  9>      shift shift 0.2 erroff 0.1 end
| 10> end
| 11>
| 12> * xyzfile 0 1 3_3_Dimethyl_N_methylpyrrolidine_nlp.xyz
| 13>
| 14>
| 15>                          ****END OF INPUT****

CARTESIAN COORDINATES (ANGSTROEM)
---------------------------------
  C     -1.021930   -0.077340   -0.020900
  C     -0.495700    1.375620    0.009880
  C      1.038240    1.238440    0.024400
  C      0.228580   -0.861370   -0.459690
  N      1.288380   -0.171410    0.240360
  C      2.624850   -0.607400   -0.093560
  H     -0.873630    1.933400    0.898500
  H     -0.816820    1.939750   -0.897330
  C     -2.192300   -0.269630   -0.996880
  C     -1.451330   -0.516020    1.393950
  H      1.513840    1.837580    0.835630
  H      1.458550    1.561390   -0.958530
  H      0.380470   -0.785070   -1.562740
  H      0.185900   -1.936580   -0.169590
  H      2.845150   -0.459730   -1.176070
  H      3.367020   -0.037910    0.510780
  H      2.738640   -1.687140    0.154300
  H     -1.915680    0.031350   -2.033030
  H     -3.070440    0.343420   -0.690720
  H     -2.510180   -1.336580   -1.031730
  H     -2.322110    0.079440    1.751920
  H     -0.629170   -0.388990    2.134880
  H     -1.752720   -1.588280    1.408030

 Total Charge           Charge          ....    0
 Multiplicity           Mult            ....    1
 Number of Electrons    NEL             ....   64
 Basis Dimension        Dim             ....  450

ORBITAL ENERGIES
----------------

  NO   OCC          E(Eh)            E(eV)
   0   2.0000     -15.536058      -422.7576
   1   2.0000     -11.244971      -305.9912
   2   2.0000     -11.244852      -305.9880
   3   2.0000     -11.242388      -305.9209
   4   2.0000     -11.232095      -305.6408
   5   2.0000     -11.219542      -305.2993
   6   2.0000     -11.217637      -305.2474
   7   2.0000     -11.211878      -305.0907
   8   2.0000      -1.243125       -33.8272
   9   2.0000      -1.084563       -29.5125
  10   2.0000      -0.989774       -26.9331
  11   2.0000      -0.936361       -25.4797
  12   2.0000      -0.918810       -25.0021
  13   2.0000      -0.870791       -23.6954
  14   2.0000      -0.776421       -21.1275
  15   2.0000      -0.733807       -19.9679
  16   2.0000      -0.659357       -17.9420
  17   2.0000      -0.640244       -17.4219
  18   2.0000      -0.602137       -16.3850
  19   2.0000      -0.596028       -16.2187
  20   2.0000      -0.574463       -15.6319
  21   2.0000      -0.556484       -15.1427
  22   2.0000      -0.553175       -15.0526
  23   2.0000      -0.532670       -14.4947
  24   2.0000      -0.510084       -13.8801
  25   2.0000      -0.494014       -13.4428
  26   2.0000      -0.489548       -13.3213
  27   2.0000      -0.484301       -13.1785
  28   2.0000      -0.449915       -12.2428
  29   2.0000      -0.443304       -12.0629
  30   2.0000      -0.440154       -11.9772
  31   2.0000      -0.346402        -9.4261
  32   0.0000       0.134328         3.6552
  33   0.0000       0.153773         4.1844
  34   0.0000       0.170921         4.6510
  35   0.0000       0.174547         4.7497
  36   0.0000       0.189286         5.1507

MULLIKEN ATOMIC CHARGES
-----------------------
   0 C :    0.041905
   1 C :   -0.198757
   2 C :   -0.077540
   3 C :   -0.060230
   4 N :   -0.222307
   5 C :   -0.176988
   6 H :    0.097550
   7 H :    0.095915
   8 C :   -0.292191
   9 C :   -0.303383
  10 H :    0.086661
  11 H :    0.063343
  12 H :    0.065704
  13 H :    0.088533
  14 H :    0.052299
  15 H :    0.089628
  16 H :    0.088876
  17 H :    0.089733
  18 H :    0.095867
  19 H :    0.093020
  20 H :    0.090093
  21 H :    0.104943
  22 H :    0.087326
Sum of atomic charges:   -0.0000000

LOEWDIN ATOMIC CHARGES
----------------------
   0 C :   -0.114344
   1 C :    0.072495
   2 C :   -0.018302
   3 C :   -0.014547
   4 N :    0.247062
   5 C :    0.021050
   6 H :   -0.019015
   7 H :   -0.019821
   8 C :    0.100758
   9 C :    0.103057
  10 H :   -0.025715
  11 H :   -0.039562
  12 H :   -0.036969
  13 H :   -0.020597
  14 H :   -0.047111
  15 H :   -0.024266
  16 H :   -0.024722
  17 H :   -0.024674
  18 H :   -0.021404
  19 H :   -0.021833
  20 H :   -0.025132
  21 H :   -0.020814
  22 H :   -0.025592

  Mayer bond orders larger than 0.1
B(  0-C ,  1-C ) :   0.9315 B(  0-C ,  3-C ) :   0.9624 B(  0-C ,  8-C ) :   0.9611
B(  0-C ,  9-C ) :   0.9525 B(  1-C ,  2-C ) :   0.9566 B(  1-C ,  6-H ) :   0.9927
B(  1-C ,  7-H ) :   0.9975 B(  2-C ,  4-N ) :   0.9811 B(  2-C , 10-H ) :   0.9895
B(  2-C , 11-H ) :   0.9871 B(  3-C ,  4-N ) :   0.9856 B(  3-C , 12-H ) :   0.9840
B(  3-C , 13-H ) :   0.9818 B(  4-N ,  5-C ) :   0.9938 B(  5-C , 14-H ) :   0.9661
B(  5-C , 15-H ) :   0.9848 B(  5-C , 16-H ) :   0.9851 B(  8-C , 17-H ) :   0.9829
B(  8-C , 18-H ) :   0.9844 B(  8-C , 19-H ) :   0.9832 B(  9-C , 20-H ) :   0.9851
B(  9-C , 21-H ) :   0.9786 B(  9-C , 22-H ) :   0.9858

E(0)                                       ...   -328.350686183
E(0)                                       ...   -328.350686183
E(CORR)(strong-pairs)                      ...     -1.504774185
E(CORR)(weak-pairs)                        ...     -0.001744749
E(CORR)(corrected)                         ...     -1.506518935
E(TOT)                                     ...   -329.857205117
E(CCSD(T))                                 ...   -329.918414336
FINAL SINGLE POINT ENERGY      -329.918414335626

DIPOLE MOMENT
-------------
                                X             Y             Z
Electronic contribution:      1.50055       0.58243       0.67045
Nuclear contribution   :     -1.47969      -0.52552      -0.87521
                        -----------------------------------------
Total Dipole Moment    :      0.02086       0.05691      -0.20476
                        -----------------------------------------
Magnitude (a.u.)       :      0.21354
Magnitude (Debye)      :      0.54277

Rotational constants in cm-1:     0.115355     0.049384     0.046264
Rotational constants in MHz :  3458.266599  1480.482915  1386.974658

                             ****ORCA TERMINATED NORMALLY****
TOTAL RUN TIME: 0 days 0 hours 20 minutes 17 seconds 747 msec
