                         Program Version 4.1.x  -  STABLE  -
|  1> ! RHF DLPNO-CCSD(T) cc-pVTZ RIJK cc-pVTZ/JK cc-pVTZ/C
|  2> ! KDIIS SOSCF TightSCF TightPNO
|  3>
|  4> %pal nprocs 8 end
|  5>
|  6> %maxcore 8000
|  7>
|  8> %scf maxiter 300
|  9>      shift shift 0.2 erroff 0.1 end
| 10> end
| 11>
| 12> * xyzfile 0 1 3_keto_cyclodecanone.xyz
| 13>
| 14>
| 15>                          ****END OF INPUT****

CARTESIAN COORDINATES (ANGSTROEM)
---------------------------------
  C      1.989030   -1.099840   -0.495770
  C      2.226610    0.081270    0.467860
  C      1.959770    1.513910   -0.039910
  C      0.505590    1.878560   -0.404750
  C     -0.526900    1.631730    0.713450
  C     -1.976320    1.449720    0.227140
  C     -2.236880    0.236880   -0.688880
  C     -1.932640   -1.152640   -0.084160
  C     -0.476270   -1.534780    0.181260
  O     -0.151390   -2.027770    1.251040
  C      0.540380   -1.385190   -0.947720
  H      2.596330   -0.961370   -1.400680
  H      2.369710   -2.000250   -0.001680
  H      0.526470   -2.349280   -1.479490
  H      0.193700   -0.649710   -1.676100
  H      3.284820    0.038480    0.757930
  H      1.669960   -0.101660    1.392890
  H      2.594230    1.708230   -0.916410
  H      2.308220    2.205550    0.740220
  H      0.218390    1.332140   -1.308000
  H      0.475170    2.938400   -0.691620
  H     -2.470190   -1.291020    0.860010
  H     -2.315440   -1.912460   -0.783290
  H     -0.497520    2.472060    1.419610
  H     -0.246550    0.754680    1.305150
  H     -2.299130    2.353160   -0.309150
  H     -2.629720    1.368650    1.106480
  H     -3.300590    0.243220   -0.957610
  H     -1.700800    0.355510   -1.637620

 Total Charge           Charge          ....    0
 Multiplicity           Mult            ....    1
 Number of Electrons    NEL             ....   86
 Basis Dimension        Dim             ....  582

ORBITAL ENERGIES
----------------

  NO   OCC          E(Eh)            E(eV)
   0   2.0000     -20.535657      -558.8036
   1   2.0000     -11.326324      -308.2050
   2   2.0000     -11.236200      -305.7525
   3   2.0000     -11.234872      -305.7164
   4   2.0000     -11.234549      -305.7076
   5   2.0000     -11.225635      -305.4651
   6   2.0000     -11.225131      -305.4513
   7   2.0000     -11.219766      -305.3054
   8   2.0000     -11.219218      -305.2904
   9   2.0000     -11.218377      -305.2676
  10   2.0000     -11.214806      -305.1704
  11   2.0000      -1.373970       -37.3876
  12   2.0000      -1.102268       -29.9942
  13   2.0000      -1.069673       -29.1073
  14   2.0000      -1.050897       -28.5964
  15   2.0000      -0.981908       -26.7191
  16   2.0000      -0.961666       -26.1683
  17   2.0000      -0.881314       -23.9818
  18   2.0000      -0.852606       -23.2006
  19   2.0000      -0.788514       -21.4566
  20   2.0000      -0.761526       -20.7222
  21   2.0000      -0.710578       -19.3358
  22   2.0000      -0.668385       -18.1877
  23   2.0000      -0.651488       -17.7279
  24   2.0000      -0.628492       -17.1021
  25   2.0000      -0.614246       -16.7145
  26   2.0000      -0.606315       -16.4987
  27   2.0000      -0.601806       -16.3760
  28   2.0000      -0.583263       -15.8714
  29   2.0000      -0.560253       -15.2453
  30   2.0000      -0.554750       -15.0955
  31   2.0000      -0.536358       -14.5950
  32   2.0000      -0.517165       -14.0728
  33   2.0000      -0.510336       -13.8869
  34   2.0000      -0.499950       -13.6043
  35   2.0000      -0.496188       -13.5020
  36   2.0000      -0.477992       -13.0068
  37   2.0000      -0.468979       -12.7616
  38   2.0000      -0.454452       -12.3663
  39   2.0000      -0.443748       -12.0750
  40   2.0000      -0.441702       -12.0193
  41   2.0000      -0.437382       -11.9018
  42   2.0000      -0.396267       -10.7830
  43   0.0000       0.124604         3.3907
  44   0.0000       0.143589         3.9073
  45   0.0000       0.147240         4.0066
  46   0.0000       0.152368         4.1462
  47   0.0000       0.163432         4.4472

MULLIKEN ATOMIC CHARGES
-----------------------
   0 C :   -0.167141
   1 C :   -0.244294
   2 C :   -0.186055
   3 C :   -0.217959
   4 C :   -0.235253
   5 C :   -0.179744
   6 C :   -0.247681
   7 C :   -0.193952
   8 C :    0.280239
   9 O :   -0.393264
  10 C :   -0.251261
  11 H :    0.101669
  12 H :    0.115891
  13 H :    0.138190
  14 H :    0.116339
  15 H :    0.117937
  16 H :    0.124831
  17 H :    0.098620
  18 H :    0.101144
  19 H :    0.090894
  20 H :    0.117630
  21 H :    0.125814
  22 H :    0.115519
  23 H :    0.117585
  24 H :    0.112775
  25 H :    0.101859
  26 H :    0.107311
  27 H :    0.128019
  28 H :    0.104338
Sum of atomic charges:   -0.0000000

LOEWDIN ATOMIC CHARGES
----------------------
   0 C :    0.066737
   1 C :    0.055778
   2 C :    0.056824
   3 C :    0.055659
   4 C :    0.058349
   5 C :    0.058274
   6 C :    0.057268
   7 C :    0.057171
   8 C :   -0.221252
   9 O :    0.123847
  10 C :    0.051481
  11 H :   -0.025364
  12 H :   -0.017108
  13 H :   -0.008452
  14 H :   -0.030947
  15 H :   -0.020665
  16 H :   -0.028095
  17 H :   -0.026748
  18 H :   -0.023312
  19 H :   -0.037767
  20 H :   -0.025107
  21 H :   -0.013358
  22 H :   -0.011049
  23 H :   -0.023491
  24 H :   -0.029034
  25 H :   -0.023885
  26 H :   -0.022862
  27 H :   -0.019141
  28 H :   -0.033752

  Mayer bond orders larger than 0.1
B(  0-C ,  1-C ) :   0.9519 B(  0-C , 10-C ) :   0.9495 B(  0-C , 11-H ) :   0.9881
B(  0-C , 12-H ) :   0.9843 B(  1-C ,  2-C ) :   0.9481 B(  1-C , 15-H ) :   0.9909
B(  1-C , 16-H ) :   0.9737 B(  2-C ,  3-C ) :   0.9621 B(  2-C , 17-H ) :   0.9894
B(  2-C , 18-H ) :   0.9906 B(  3-C ,  4-C ) :   0.9424 B(  3-C , 19-H ) :   0.9787
B(  3-C , 20-H ) :   0.9881 B(  4-C ,  5-C ) :   0.9563 B(  4-C , 23-H ) :   0.9846
B(  4-C , 24-H ) :   0.9739 B(  5-C ,  6-C ) :   0.9466 B(  5-C , 25-H ) :   0.9899
B(  5-C , 26-H ) :   0.9894 B(  6-C ,  7-C ) :   0.9376 B(  6-C , 27-H ) :   0.9869
B(  6-C , 28-H ) :   0.9774 B(  7-C ,  8-C ) :   0.9659 B(  7-C , 21-H ) :   0.9775
B(  7-C , 22-H ) :   0.9696 B(  8-C ,  9-O ) :   2.0429 B(  8-C , 10-C ) :   0.9298
B( 10-C , 13-H ) :   0.9641 B( 10-C , 14-H ) :   0.9760

E(0)                                       ...   -464.178442726
E(0)                                       ...   -464.178442726
E(CORR)(strong-pairs)                      ...     -2.035967862
E(CORR)(weak-pairs)                        ...     -0.002409381
E(CORR)(corrected)                         ...     -2.038377242
E(TOT)                                     ...   -466.216819968
E(CCSD(T))                                 ...   -466.301417297
FINAL SINGLE POINT ENERGY      -466.301417296866

DIPOLE MOMENT
-------------
                                X             Y             Z
Electronic contribution:     -1.10763      -6.21436       2.70581
Nuclear contribution   :      0.81111       6.77707      -3.72722
                        -----------------------------------------
Total Dipole Moment    :     -0.29653       0.56271      -1.02142
                        -----------------------------------------
Magnitude (a.u.)       :      1.20327
Magnitude (Debye)      :      3.05847

Rotational constants in cm-1:     0.041757     0.035540     0.023430
Rotational constants in MHz :  1251.848463  1065.459521   702.399750

                             ****ORCA TERMINATED NORMALLY****
TOTAL RUN TIME: 0 days 1 hours 0 minutes 42 seconds 92 msec
