                         Program Version 4.1.x  -  STABLE  -
|  1> ! RHF DLPNO-CCSD(T) cc-pVTZ RIJK cc-pVTZ/JK cc-pVTZ/C
|  2> ! KDIIS SOSCF TightSCF TightPNO
|  3>
|  4> %pal nprocs 8 end
|  5>
|  6> %maxcore 8000
|  7>
|  8> %scf maxiter 300
|  9>      shift shift 0.2 erroff 0.1 end
| 10> end
| 11>
| 12> * xyzfile 0 1 3_methylpiperidine_eq.xyz
| 13>
| 14>
| 15>                          ****END OF INPUT****

CARTESIAN COORDINATES (ANGSTROEM)
---------------------------------
  C      0.271540    1.270590    0.160640
  C      1.008750    0.015080   -0.341850
  C      0.266590   -1.242580    0.138070
  N     -1.132650   -1.206280   -0.294620
  C     -1.865810   -0.070760    0.270570
  C     -1.222420    1.237680   -0.199850
  C      2.478940    0.000980    0.090850
  H     -1.596910   -2.079870   -0.065050
  H      0.736480   -2.139740   -0.281480
  H     -1.871840   -0.088460    1.379510
  H     -2.907670   -0.128290   -0.063390
  H      0.964700    0.012010   -1.440410
  H     -1.743680    2.091270    0.250800
  H     -1.342100    1.316540   -1.287880
  H      0.379310    1.329190    1.254890
  H      0.744230    2.173070   -0.247850
  H      0.361800   -1.306050    1.242090
  H      3.002600   -0.880590   -0.297420
  H      3.005280    0.889330   -0.276280
  H      2.570760   -0.010340    1.184270

 Total Charge           Charge          ....    0
 Multiplicity           Mult            ....    1
 Number of Electrons    NEL             ....   56
 Basis Dimension        Dim             ....  392

ORBITAL ENERGIES
----------------

  NO   OCC          E(Eh)            E(eV)
   0   2.0000     -15.533510      -422.6883
   1   2.0000     -11.242426      -305.9220
   2   2.0000     -11.241193      -305.8884
   3   2.0000     -11.219790      -305.3060
   4   2.0000     -11.214550      -305.1634
   5   2.0000     -11.213547      -305.1361
   6   2.0000     -11.210559      -305.0548
   7   2.0000      -1.203315       -32.7439
   8   2.0000      -1.067494       -29.0480
   9   2.0000      -1.020922       -27.7807
  10   2.0000      -0.921343       -25.0710
  11   2.0000      -0.859469       -23.3873
  12   2.0000      -0.810437       -22.0531
  13   2.0000      -0.747280       -20.3345
  14   2.0000      -0.670373       -18.2418
  15   2.0000      -0.617904       -16.8140
  16   2.0000      -0.612122       -16.6567
  17   2.0000      -0.587785       -15.9944
  18   2.0000      -0.574834       -15.6420
  19   2.0000      -0.547760       -14.9053
  20   2.0000      -0.536291       -14.5932
  21   2.0000      -0.515471       -14.0267
  22   2.0000      -0.503882       -13.7113
  23   2.0000      -0.474009       -12.8984
  24   2.0000      -0.456648       -12.4260
  25   2.0000      -0.437358       -11.9011
  26   2.0000      -0.432746       -11.7756
  27   2.0000      -0.361738        -9.8434
  28   0.0000       0.141397         3.8476
  29   0.0000       0.155299         4.2259
  30   0.0000       0.163166         4.4400
  31   0.0000       0.166899         4.5415
  32   0.0000       0.196908         5.3581

MULLIKEN ATOMIC CHARGES
-----------------------
   0 C :   -0.190350
   1 C :   -0.061601
   2 C :   -0.074363
   3 N :   -0.293871
   4 C :   -0.080432
   5 C :   -0.187067
   6 C :   -0.310233
   7 H :    0.120404
   8 H :    0.095604
   9 H :    0.061468
  10 H :    0.098091
  11 H :    0.098264
  12 H :    0.101362
  13 H :    0.089886
  14 H :    0.084771
  15 H :    0.103775
  16 H :    0.059873
  17 H :    0.098255
  18 H :    0.099512
  19 H :    0.086653
Sum of atomic charges:   -0.0000000

LOEWDIN ATOMIC CHARGES
----------------------
   0 C :    0.059048
   1 C :   -0.023294
   2 C :   -0.010203
   3 N :    0.295408
   4 C :   -0.014766
   5 C :    0.056489
   6 C :    0.110926
   7 H :   -0.113200
   8 H :   -0.029553
   9 H :   -0.043847
  10 H :   -0.030841
  11 H :   -0.022562
  12 H :   -0.027369
  13 H :   -0.025726
  14 H :   -0.026507
  15 H :   -0.026451
  16 H :   -0.042297
  17 H :   -0.028264
  18 H :   -0.027462
  19 H :   -0.029529

  Mayer bond orders larger than 0.1
B(  0-C ,  1-C ) :   0.9532 B(  0-C ,  5-C ) :   0.9643 B(  0-C , 14-H ) :   0.9815
B(  0-C , 15-H ) :   0.9922 B(  1-C ,  2-C ) :   0.9530 B(  1-C ,  6-C ) :   0.9549
B(  1-C , 11-H ) :   0.9753 B(  2-C ,  3-N ) :   0.9962 B(  2-C ,  8-H ) :   0.9905
B(  2-C , 16-H ) :   0.9784 B(  3-N ,  4-C ) :   0.9850 B(  3-N ,  7-H ) :   0.9939
B(  4-C ,  5-C ) :   0.9519 B(  4-C ,  9-H ) :   0.9811 B(  4-C , 10-H ) :   0.9927
B(  5-C , 12-H ) :   0.9929 B(  5-C , 13-H ) :   0.9811 B(  6-C , 17-H ) :   0.9874
B(  6-C , 18-H ) :   0.9862 B(  6-C , 19-H ) :   0.9787

E(0)                                       ...   -289.324028225
E(0)                                       ...   -289.324028225
E(CORR)(strong-pairs)                      ...     -1.315538916
E(CORR)(weak-pairs)                        ...     -0.001344379
E(CORR)(corrected)                         ...     -1.316883295
E(TOT)                                     ...   -290.640911520
E(CCSD(T))                                 ...   -290.693498838
FINAL SINGLE POINT ENERGY      -290.693498837917

DIPOLE MOMENT
-------------
                                X             Y             Z
Electronic contribution:     -2.47764      -1.31234      -1.12782
Nuclear contribution   :      2.43513       1.24176       1.43167
                        -----------------------------------------
Total Dipole Moment    :     -0.04251      -0.07057       0.30385
                        -----------------------------------------
Magnitude (a.u.)       :      0.31482
Magnitude (Debye)      :      0.80021

Rotational constants in cm-1:     0.144136     0.074149     0.053704
Rotational constants in MHz :  4321.081512  2222.919050  1609.993327

                             ****ORCA TERMINATED NORMALLY****
TOTAL RUN TIME: 0 days 0 hours 14 minutes 17 seconds 789 msec
