                         Program Version 4.1.x  -  STABLE  -
|  1> ! RHF DLPNO-CCSD(T) cc-pVTZ RIJK cc-pVTZ/JK cc-pVTZ/C
|  2> ! KDIIS SOSCF TightSCF TightPNO
|  3>
|  4> %pal nprocs 8 end
|  5>
|  6> %maxcore 8000
|  7>
|  8> %scf maxiter 300
|  9>      shift shift 0.2 erroff 0.1 end
| 10> end
| 11>
| 12> * xyzfile 0 1 3_methylpiperidine_ax.xyz
| 13>
| 14>
| 15>                          ****END OF INPUT****

CARTESIAN COORDINATES (ANGSTROEM)
---------------------------------
  C      0.224740    1.269130    0.625570
  C      1.114450    0.011900    0.492410
  C      0.227590   -1.243480    0.607710
  N     -0.847310   -1.204600   -0.388270
  C     -1.756520   -0.074290   -0.180250
  C     -0.979870    1.238930   -0.330620
  C      1.954490    0.007920   -0.794440
  H     -1.360240   -2.080820   -0.391080
  H      0.825350   -2.146450    0.437700
  H     -2.227210   -0.099610    0.824170
  H     -2.561800   -0.132360   -0.920830
  H      1.806750   -0.001080    1.346080
  H     -1.643890    2.088040   -0.126890
  H     -0.643970    1.333700   -1.370070
  H     -0.148670    1.326570    1.658290
  H      0.822860    2.174000    0.459320
  H     -0.169950   -1.299460    1.641180
  H      2.564080    0.916290   -0.866430
  H      2.634990   -0.851650   -0.810590
  H      1.323620   -0.055710   -1.685180

 Total Charge           Charge          ....    0
 Multiplicity           Mult            ....    1
 Number of Electrons    NEL             ....   56
 Basis Dimension        Dim             ....  392

ORBITAL ENERGIES
----------------

  NO   OCC          E(Eh)            E(eV)
   0   2.0000     -15.533566      -422.6898
   1   2.0000     -11.242733      -305.9303
   2   2.0000     -11.241498      -305.8967
   3   2.0000     -11.220831      -305.3343
   4   2.0000     -11.214572      -305.1640
   5   2.0000     -11.213319      -305.1299
   6   2.0000     -11.202614      -304.8386
   7   2.0000      -1.203548       -32.7502
   8   2.0000      -1.063716       -28.9452
   9   2.0000      -1.018515       -27.7152
  10   2.0000      -0.919752       -25.0277
  11   2.0000      -0.858317       -23.3560
  12   2.0000      -0.820208       -22.3190
  13   2.0000      -0.723968       -19.7002
  14   2.0000      -0.682155       -18.5624
  15   2.0000      -0.619442       -16.8559
  16   2.0000      -0.603380       -16.4188
  17   2.0000      -0.589399       -16.0384
  18   2.0000      -0.571237       -15.5442
  19   2.0000      -0.553125       -15.0513
  20   2.0000      -0.538900       -14.6642
  21   2.0000      -0.510693       -13.8967
  22   2.0000      -0.497888       -13.5482
  23   2.0000      -0.474313       -12.9067
  24   2.0000      -0.455707       -12.4004
  25   2.0000      -0.433956       -11.8085
  26   2.0000      -0.432016       -11.7557
  27   2.0000      -0.360839        -9.8189
  28   0.0000       0.135341         3.6828
  29   0.0000       0.161520         4.3952
  30   0.0000       0.165828         4.5124
  31   0.0000       0.169674         4.6171
  32   0.0000       0.195697         5.3252

MULLIKEN ATOMIC CHARGES
-----------------------
   0 C :   -0.199557
   1 C :   -0.082142
   2 C :   -0.092363
   3 N :   -0.294440
   4 C :   -0.082337
   5 C :   -0.197219
   6 C :   -0.306435
   7 H :    0.120682
   8 H :    0.095696
   9 H :    0.059623
  10 H :    0.098159
  11 H :    0.107680
  12 H :    0.107832
  13 H :    0.096653
  14 H :    0.096019
  15 H :    0.102843
  16 H :    0.078601
  17 H :    0.092244
  18 H :    0.094840
  19 H :    0.103620
Sum of atomic charges:    0.0000000

LOEWDIN ATOMIC CHARGES
----------------------
   0 C :    0.061128
   1 C :   -0.018794
   2 C :   -0.008608
   3 N :    0.296366
   4 C :   -0.014323
   5 C :    0.055957
   6 C :    0.111438
   7 H :   -0.114039
   8 H :   -0.029802
   9 H :   -0.043541
  10 H :   -0.031122
  11 H :   -0.023623
  12 H :   -0.027175
  13 H :   -0.027254
  14 H :   -0.025989
  15 H :   -0.027089
  16 H :   -0.041298
  17 H :   -0.031091
  18 H :   -0.029820
  19 H :   -0.031321

  Mayer bond orders larger than 0.1
B(  0-C ,  1-C ) :   0.9492 B(  0-C ,  5-C ) :   0.9502 B(  0-C , 14-H ) :   0.9908
B(  0-C , 15-H ) :   0.9935 B(  1-C ,  2-C ) :   0.9471 B(  1-C ,  6-C ) :   0.9461
B(  1-C , 11-H ) :   0.9960 B(  2-C ,  3-N ) :   0.9771 B(  2-C ,  8-H ) :   0.9926
B(  2-C , 16-H ) :   0.9920 B(  3-N ,  4-C ) :   0.9895 B(  3-N ,  7-H ) :   0.9939
B(  4-C ,  5-C ) :   0.9500 B(  4-C ,  9-H ) :   0.9810 B(  4-C , 10-H ) :   0.9929
B(  5-C , 12-H ) :   0.9922 B(  5-C , 13-H ) :   0.9818 B(  6-C , 17-H ) :   0.9872
B(  6-C , 18-H ) :   0.9878 B(  6-C , 19-H ) :   0.9740

E(0)                                       ...   -289.321119457
E(0)                                       ...   -289.321119457
E(CORR)(strong-pairs)                      ...     -1.316454324
E(CORR)(weak-pairs)                        ...     -0.001354724
E(CORR)(corrected)                         ...     -1.317809048
E(TOT)                                     ...   -290.638928505
E(CCSD(T))                                 ...   -290.691637857
FINAL SINGLE POINT ENERGY      -290.691637856690

DIPOLE MOMENT
-------------
                                X             Y             Z
Electronic contribution:     -1.48590      -1.32476       0.09902
Nuclear contribution   :      1.29050       1.23479       0.20507
                        -----------------------------------------
Total Dipole Moment    :     -0.19540      -0.08997       0.30409
                        -----------------------------------------
Magnitude (a.u.)       :      0.37248
Magnitude (Debye)      :      0.94678

Rotational constants in cm-1:     0.119739     0.085822     0.065034
Rotational constants in MHz :  3589.696304  2572.887614  1949.682171

                             ****ORCA TERMINATED NORMALLY****
TOTAL RUN TIME: 0 days 0 hours 12 minutes 41 seconds 270 msec
