                         Program Version 4.1.x  -  STABLE  -
|  1> ! RHF DLPNO-CCSD(T) cc-pVTZ RIJK cc-pVTZ/JK cc-pVTZ/C
|  2> ! KDIIS SOSCF TightSCF TightPNO
|  3>
|  4> %pal nprocs 8 end
|  5>
|  6> %maxcore 8000
|  7>
|  8> %scf maxiter 300
|  9>      shift shift 0.2 erroff 0.1 end
| 10> end
| 11>
| 12> * xyzfile 0 1 3_methylthiane_eq.xyz
| 13>
| 14>
| 15>                          ****END OF INPUT****

CARTESIAN COORDINATES (ANGSTROEM)
---------------------------------
  C     -1.217350   -0.078200   -0.321960
  C     -0.744790    1.318110    0.126150
  C      0.711150    1.642020   -0.247200
  C      1.717820    0.661180    0.359680
  S      1.431330   -1.068530   -0.183350
  C     -0.342140   -1.189240    0.279580
  C     -2.692030   -0.303900    0.045880
  H      0.821920    1.639270   -1.338940
  H      0.956720    2.655940    0.097460
  H      1.686110    0.701030    1.455670
  H      2.739390    0.901080    0.050080
  H     -1.406160    2.076220   -0.312430
  H     -0.865360    1.398680    1.217700
  H     -0.426140   -1.187870    1.374430
  H     -1.119400   -0.136400   -1.415340
  H     -0.668270   -2.173280   -0.072300
  H     -2.839170   -0.263250    1.132390
  H     -3.329880    0.465230   -0.404450
  H     -3.047090   -1.280060   -0.303510

 Total Charge           Charge          ....    0
 Multiplicity           Mult            ....    1
 Number of Electrons    NEL             ....   64
 Basis Dimension        Dim             ....  382

ORBITAL ENERGIES
----------------

  NO   OCC          E(Eh)            E(eV)
   0   2.0000     -91.934780     -2501.6726
   1   2.0000     -11.252971      -306.2089
   2   2.0000     -11.251595      -306.1715
   3   2.0000     -11.234404      -305.7037
   4   2.0000     -11.228323      -305.5382
   5   2.0000     -11.224972      -305.4470
   6   2.0000     -11.218663      -305.2754
   7   2.0000      -8.935689      -243.1525
   8   2.0000      -6.616891      -180.0547
   9   2.0000      -6.615967      -180.0296
  10   2.0000      -6.615088      -180.0057
  11   2.0000      -1.119994       -30.4766
  12   2.0000      -1.039717       -28.2921
  13   2.0000      -1.003427       -27.3046
  14   2.0000      -0.926264       -25.2049
  15   2.0000      -0.839255       -22.8373
  16   2.0000      -0.808059       -21.9884
  17   2.0000      -0.753354       -20.4998
  18   2.0000      -0.643758       -17.5175
  19   2.0000      -0.621182       -16.9032
  20   2.0000      -0.596983       -16.2447
  21   2.0000      -0.585687       -15.9374
  22   2.0000      -0.565210       -15.3801
  23   2.0000      -0.544538       -14.8176
  24   2.0000      -0.529992       -14.4218
  25   2.0000      -0.496990       -13.5238
  26   2.0000      -0.490435       -13.3454
  27   2.0000      -0.487493       -13.2654
  28   2.0000      -0.465545       -12.6681
  29   2.0000      -0.432217       -11.7612
  30   2.0000      -0.410093       -11.1592
  31   2.0000      -0.330249        -8.9865
  32   0.0000       0.137162         3.7324
  33   0.0000       0.146838         3.9957
  34   0.0000       0.157208         4.2779
  35   0.0000       0.175379         4.7723
  36   0.0000       0.177811         4.8385

MULLIKEN ATOMIC CHARGES
-----------------------
   0 C :   -0.063477
   1 C :   -0.198573
   2 C :   -0.183775
   3 C :   -0.174014
   4 S :   -0.165311
   5 C :   -0.173100
   6 C :   -0.303482
   7 H :    0.099095
   8 H :    0.108734
   9 H :    0.106032
  10 H :    0.122095
  11 H :    0.108438
  12 H :    0.089695
  13 H :    0.106491
  14 H :    0.109676
  15 H :    0.120037
  16 H :    0.089571
  17 H :    0.100178
  18 H :    0.101690
Sum of atomic charges:    0.0000000

LOEWDIN ATOMIC CHARGES
----------------------
   0 C :   -0.041286
   1 C :    0.057486
   2 C :    0.036771
   3 C :   -0.096418
   4 S :    0.378782
   5 C :   -0.092496
   6 C :    0.113327
   7 H :   -0.024452
   8 H :   -0.023901
   9 H :   -0.042654
  10 H :   -0.036228
  11 H :   -0.022495
  12 H :   -0.025326
  13 H :   -0.041161
  14 H :   -0.022266
  15 H :   -0.034920
  16 H :   -0.028395
  17 H :   -0.026814
  18 H :   -0.027555

  Mayer bond orders larger than 0.1
B(  0-C ,  1-C ) :   0.9508 B(  0-C ,  5-C ) :   0.9394 B(  0-C ,  6-C ) :   0.9559
B(  0-C , 14-H ) :   0.9721 B(  1-C ,  2-C ) :   0.9602 B(  1-C , 11-H ) :   0.9918
B(  1-C , 12-H ) :   0.9801 B(  2-C ,  3-C ) :   0.9423 B(  2-C ,  7-H ) :   0.9783
B(  2-C ,  8-H ) :   0.9858 B(  3-C ,  4-S ) :   0.9877 B(  3-C ,  9-H ) :   0.9782
B(  3-C , 10-H ) :   0.9845 B(  4-S ,  5-C ) :   0.9969 B(  5-C , 13-H ) :   0.9746
B(  5-C , 15-H ) :   0.9837 B(  6-C , 16-H ) :   0.9785 B(  6-C , 17-H ) :   0.9852
B(  6-C , 18-H ) :   0.9866

E(0)                                       ...   -631.829382348
E(0)                                       ...   -631.829382348
E(CORR)(strong-pairs)                      ...     -1.286441625
E(CORR)(weak-pairs)                        ...     -0.001245331
E(CORR)(corrected)                         ...     -1.287686956
E(TOT)                                     ...   -633.117069303
E(CCSD(T))                                 ...   -633.171265550
FINAL SINGLE POINT ENERGY      -633.171265549712

DIPOLE MOMENT
-------------
                                X             Y             Z
Electronic contribution:      7.29905      -4.44218      -1.32276
Nuclear contribution   :     -7.79939       4.99474       1.53726
                        -----------------------------------------
Total Dipole Moment    :     -0.50033       0.55257       0.21450
                        -----------------------------------------
Magnitude (a.u.)       :      0.77568
Magnitude (Debye)      :      1.97162

Rotational constants in cm-1:     0.108831     0.059721     0.041763
Rotational constants in MHz :  3262.669010  1790.376219  1252.016853

                             ****ORCA TERMINATED NORMALLY****
TOTAL RUN TIME: 0 days 0 hours 12 minutes 20 seconds 901 msec
