                         Program Version 4.1.x  -  STABLE  -
|  1> ! RHF DLPNO-CCSD(T) cc-pVTZ RIJK cc-pVTZ/JK cc-pVTZ/C
|  2> ! KDIIS SOSCF TightSCF TightPNO
|  3>
|  4> %pal nprocs 8 end
|  5>
|  6> %maxcore 8000
|  7>
|  8> %scf maxiter 300
|  9>      shift shift 0.2 erroff 0.1 end
| 10> end
| 11>
| 12> * xyzfile 0 1 3_Me_THP_ax.xyz
| 13>
| 14>
| 15>                          ****END OF INPUT****

CARTESIAN COORDINATES (ANGSTROEM)
---------------------------------
  C      0.222640   -1.237070    0.588670
  O     -0.827480   -1.241370   -0.377410
  C     -1.726470   -0.148170   -0.197180
  C     -1.011690    1.198490   -0.332500
  C      0.183420    1.267500    0.633600
  C      1.095230    0.026530    0.500690
  C      1.948170    0.044280   -0.777470
  H     -2.504860   -0.270680   -0.955820
  H     -2.202170   -0.226750    0.796870
  H     -1.719320    2.012070   -0.128140
  H     -0.674440    1.320080   -1.368800
  H     -0.196820    1.318680    1.663920
  H      0.761720    2.184650    0.467400
  H      1.776800    0.007450    1.363500
  H     -0.212580   -1.320850    1.599990
  H      1.328640   -0.012310   -1.677420
  H      2.635510   -0.809270   -0.797760
  H      2.549670    0.958710   -0.834650
  H      0.809850   -2.140200    0.395290

 Total Charge           Charge          ....    0
 Multiplicity           Mult            ....    1
 Number of Electrons    NEL             ....   56
 Basis Dimension        Dim             ....  378

ORBITAL ENERGIES
----------------

  NO   OCC          E(Eh)            E(eV)
   0   2.0000     -20.545509      -559.0717
   1   2.0000     -11.269424      -306.6566
   2   2.0000     -11.267862      -306.6141
   3   2.0000     -11.227754      -305.5227
   4   2.0000     -11.222723      -305.3858
   5   2.0000     -11.220690      -305.3305
   6   2.0000     -11.210627      -305.0567
   7   2.0000      -1.362195       -37.0672
   8   2.0000      -1.085195       -29.5296
   9   2.0000      -1.032008       -28.0824
  10   2.0000      -0.932050       -25.3624
  11   2.0000      -0.875016       -23.8104
  12   2.0000      -0.837633       -22.7931
  13   2.0000      -0.741794       -20.1853
  14   2.0000      -0.671563       -18.2742
  15   2.0000      -0.635037       -17.2802
  16   2.0000      -0.627171       -17.0662
  17   2.0000      -0.612289       -16.6612
  18   2.0000      -0.575471       -15.6594
  19   2.0000      -0.558781       -15.2052
  20   2.0000      -0.539735       -14.6869
  21   2.0000      -0.525161       -14.2904
  22   2.0000      -0.506559       -13.7842
  23   2.0000      -0.484800       -13.1921
  24   2.0000      -0.473158       -12.8753
  25   2.0000      -0.447558       -12.1787
  26   2.0000      -0.437810       -11.9134
  27   2.0000      -0.398593       -10.8463
  28   0.0000       0.135173         3.6782
  29   0.0000       0.159989         4.3535
  30   0.0000       0.162433         4.4200
  31   0.0000       0.180242         4.9046
  32   0.0000       0.198671         5.4061

MULLIKEN ATOMIC CHARGES
-----------------------
   0 C :    0.027228
   1 O :   -0.398468
   2 C :    0.028247
   3 C :   -0.208364
   4 C :   -0.210577
   5 C :   -0.091156
   6 C :   -0.309350
   7 H :    0.105909
   8 H :    0.060011
   9 H :    0.109681
  10 H :    0.097347
  11 H :    0.101145
  12 H :    0.105940
  13 H :    0.108185
  14 H :    0.077628
  15 H :    0.103865
  16 H :    0.099242
  17 H :    0.094823
  18 H :    0.098664
Sum of atomic charges:   -0.0000000

LOEWDIN ATOMIC CHARGES
----------------------
   0 C :   -0.048031
   1 O :    0.241013
   2 C :   -0.053084
   3 C :    0.051935
   4 C :    0.061414
   5 C :   -0.024286
   6 C :    0.112453
   7 H :   -0.028727
   8 H :   -0.038050
   9 H :   -0.024478
  10 H :   -0.027020
  11 H :   -0.024886
  12 H :   -0.026207
  13 H :   -0.021448
  14 H :   -0.036279
  15 H :   -0.029114
  16 H :   -0.028134
  17 H :   -0.029606
  18 H :   -0.027467

  Mayer bond orders larger than 0.1
B(  0-C ,  1-O ) :   0.9776 B(  0-C ,  5-C ) :   0.9434 B(  0-C , 14-H ) :   0.9932
B(  0-C , 18-H ) :   0.9916 B(  1-O ,  2-C ) :   0.9882 B(  2-C ,  3-C ) :   0.9490
B(  2-C ,  7-H ) :   0.9905 B(  2-C ,  8-H ) :   0.9853 B(  3-C ,  4-C ) :   0.9433
B(  3-C ,  9-H ) :   0.9854 B(  3-C , 10-H ) :   0.9807 B(  4-C ,  5-C ) :   0.9423
B(  4-C , 11-H ) :   0.9918 B(  4-C , 12-H ) :   0.9931 B(  5-C ,  6-C ) :   0.9459
B(  5-C , 13-H ) :   0.9895 B(  6-C , 15-H ) :   0.9757 B(  6-C , 16-H ) :   0.9866
B(  6-C , 17-H ) :   0.9868

E(0)                                       ...   -309.157899463
E(0)                                       ...   -309.157899463
E(CORR)(strong-pairs)                      ...     -1.332586602
E(CORR)(weak-pairs)                        ...     -0.001336821
E(CORR)(corrected)                         ...     -1.333923423
E(TOT)                                     ...   -310.491822887
E(CCSD(T))                                 ...   -310.544429361
FINAL SINGLE POINT ENERGY      -310.544429360599

DIPOLE MOMENT
-------------
                                X             Y             Z
Electronic contribution:     -2.34938      -2.67240      -0.16346
Nuclear contribution   :      2.45598       3.15221       0.54438
                        -----------------------------------------
Total Dipole Moment    :      0.10660       0.47980       0.38091
                        -----------------------------------------
Magnitude (a.u.)       :      0.62183
Magnitude (Debye)      :      1.58056

Rotational constants in cm-1:     0.121554     0.087264     0.066145
Rotational constants in MHz :  3644.091843  2616.109826  1982.973514

                             ****ORCA TERMINATED NORMALLY****
TOTAL RUN TIME: 0 days 0 hours 10 minutes 21 seconds 460 msec
