                         Program Version 4.1.x  -  STABLE  -
|  1> ! RHF DLPNO-CCSD(T) cc-pVTZ RIJK cc-pVTZ/JK cc-pVTZ/C
|  2> ! KDIIS SOSCF TightSCF TightPNO
|  3>
|  4> %pal nprocs 8 end
|  5>
|  6> %maxcore 8000
|  7>
|  8> %scf maxiter 300
|  9>      shift shift 0.2 erroff 0.1 end
| 10> end
| 11>
| 12> * xyzfile 0 1 3_methylthiane_ax.xyz
| 13>
| 14>
| 15>                          ****END OF INPUT****

CARTESIAN COORDINATES (ANGSTROEM)
---------------------------------
  C     -1.326520   -0.174500    0.460290
  C     -0.858010    1.296600    0.542320
  C      0.345900    1.644620   -0.350620
  C      1.586820    0.806290   -0.028750
  S      1.299580   -0.994010   -0.257190
  C     -0.182800   -1.141700    0.821420
  C     -1.991070   -0.519370   -0.881320
  H      0.088520    1.515980   -1.408460
  H      0.595230    2.705880   -0.213770
  H      1.917410    0.984810    1.002420
  H      2.419740    1.059970   -0.691140
  H     -1.699680    1.953870    0.290190
  H     -0.593810    1.521360    1.586090
  H      0.130290   -0.984210    1.860750
  H     -2.087700   -0.307120    1.244260
  H     -0.508540   -2.182880    0.730770
  H     -1.281860   -0.471730   -1.712530
  H     -2.403870   -1.534590   -0.859530
  H     -2.814930    0.171260   -1.094040

 Total Charge           Charge          ....    0
 Multiplicity           Mult            ....    1
 Number of Electrons    NEL             ....   64
 Basis Dimension        Dim             ....  382

ORBITAL ENERGIES
----------------

  NO   OCC          E(Eh)            E(eV)
   0   2.0000     -91.934308     -2501.6597
   1   2.0000     -11.253099      -306.2124
   2   2.0000     -11.252057      -306.1840
   3   2.0000     -11.235447      -305.7320
   4   2.0000     -11.227954      -305.5282
   5   2.0000     -11.225057      -305.4493
   6   2.0000     -11.211765      -305.0876
   7   2.0000      -8.935239      -243.1402
   8   2.0000      -6.616438      -180.0424
   9   2.0000      -6.615526      -180.0176
  10   2.0000      -6.614648      -179.9937
  11   2.0000      -1.118821       -30.4447
  12   2.0000      -1.034798       -28.1583
  13   2.0000      -1.002575       -27.2815
  14   2.0000      -0.927619       -25.2418
  15   2.0000      -0.837736       -22.7960
  16   2.0000      -0.819284       -22.2938
  17   2.0000      -0.728832       -19.8325
  18   2.0000      -0.645558       -17.5665
  19   2.0000      -0.622107       -16.9284
  20   2.0000      -0.608338       -16.5537
  21   2.0000      -0.586989       -15.9728
  22   2.0000      -0.559639       -15.2286
  23   2.0000      -0.549295       -14.9471
  24   2.0000      -0.512567       -13.9477
  25   2.0000      -0.503436       -13.6992
  26   2.0000      -0.490528       -13.3479
  27   2.0000      -0.484694       -13.1892
  28   2.0000      -0.463006       -12.5990
  29   2.0000      -0.430008       -11.7011
  30   2.0000      -0.408246       -11.1089
  31   2.0000      -0.330081        -8.9820
  32   0.0000       0.130717         3.5570
  33   0.0000       0.150954         4.1077
  34   0.0000       0.160020         4.3544
  35   0.0000       0.176535         4.8038
  36   0.0000       0.178001         4.8436

MULLIKEN ATOMIC CHARGES
-----------------------
   0 C :   -0.088846
   1 C :   -0.207345
   2 C :   -0.191553
   3 C :   -0.174386
   4 S :   -0.165910
   5 C :   -0.181603
   6 C :   -0.304498
   7 H :    0.104985
   8 H :    0.113773
   9 H :    0.104573
  10 H :    0.122926
  11 H :    0.109347
  12 H :    0.100266
  13 H :    0.119091
  14 H :    0.114307
  15 H :    0.118962
  16 H :    0.109028
  17 H :    0.099550
  18 H :    0.097333
Sum of atomic charges:   -0.0000000

LOEWDIN ATOMIC CHARGES
----------------------
   0 C :   -0.038380
   1 C :    0.059673
   2 C :    0.036443
   3 C :   -0.095467
   4 S :    0.378306
   5 C :   -0.088954
   6 C :    0.110940
   7 H :   -0.025766
   8 H :   -0.023651
   9 H :   -0.042532
  10 H :   -0.036672
  11 H :   -0.023348
  12 H :   -0.024643
  13 H :   -0.040690
  14 H :   -0.019727
  15 H :   -0.035544
  16 H :   -0.033288
  17 H :   -0.027919
  18 H :   -0.028782

  Mayer bond orders larger than 0.1
B(  0-C ,  1-C ) :   0.9480 B(  0-C ,  5-C ) :   0.9407 B(  0-C ,  6-C ) :   0.9477
B(  0-C , 14-H ) :   0.9863 B(  1-C ,  2-C ) :   0.9466 B(  1-C , 11-H ) :   0.9926
B(  1-C , 12-H ) :   0.9900 B(  2-C ,  3-C ) :   0.9410 B(  2-C ,  7-H ) :   0.9790
B(  2-C ,  8-H ) :   0.9842 B(  3-C ,  4-S ) :   0.9886 B(  3-C ,  9-H ) :   0.9779
B(  3-C , 10-H ) :   0.9844 B(  4-S ,  5-C ) :   0.9855 B(  5-C , 13-H ) :   0.9854
B(  5-C , 15-H ) :   0.9835 B(  6-C , 16-H ) :   0.9725 B(  6-C , 17-H ) :   0.9863
B(  6-C , 18-H ) :   0.9851

E(0)                                       ...   -631.826152465
E(0)                                       ...   -631.826152465
E(CORR)(strong-pairs)                      ...     -1.287395766
E(CORR)(weak-pairs)                        ...     -0.001255052
E(CORR)(corrected)                         ...     -1.288650817
E(TOT)                                     ...   -633.114803283
E(CCSD(T))                                 ...   -633.169134710
FINAL SINGLE POINT ENERGY      -633.169134709805

DIPOLE MOMENT
-------------
                                X             Y             Z
Electronic contribution:      6.05972      -4.07161      -0.42217
Nuclear contribution   :     -6.49405       4.61590       0.76835
                        -----------------------------------------
Total Dipole Moment    :     -0.43432       0.54429       0.34618
                        -----------------------------------------
Magnitude (a.u.)       :      0.77764
Magnitude (Debye)      :      1.97661

Rotational constants in cm-1:     0.093346     0.069809     0.050367
Rotational constants in MHz :  2798.435518  2092.813545  1509.977929

                             ****ORCA TERMINATED NORMALLY****
TOTAL RUN TIME: 0 days 0 hours 11 minutes 50 seconds 753 msec
