                         Program Version 4.1.x  -  STABLE  -
|  1> ! RHF DLPNO-CCSD(T) cc-pVTZ RIJK cc-pVTZ/JK cc-pVTZ/C
|  2> ! KDIIS SOSCF TightSCF TightPNO
|  3>
|  4> %pal nprocs 8 end
|  5>
|  6> %maxcore 8000
|  7>
|  8> %scf maxiter 300
|  9>      shift shift 0.2 erroff 0.1 end
| 10> end
| 11>
| 12> * xyzfile 0 1 3_Me_THP_eq.xyz
| 13>
| 14>
| 15>                          ****END OF INPUT****

CARTESIAN COORDINATES (ANGSTROEM)
---------------------------------
  C      0.261840   -1.230040    0.129480
  O     -1.108200   -1.245470   -0.262730
  C     -1.837300   -0.141640    0.269530
  C     -1.254110    1.195360   -0.192660
  C      0.239430    1.276700    0.159690
  C      0.994420    0.033360   -0.344850
  C      2.462220    0.022440    0.095340
  H     -2.868600   -0.271450   -0.070790
  H     -1.831570   -0.195760    1.372870
  H     -1.810440    2.019920    0.270930
  H     -1.386490    1.282950   -1.278810
  H      0.353400    1.342910    1.252730
  H      0.687010    2.187690   -0.257130
  H      0.956480    0.033310   -1.444040
  H      0.332400   -1.308860    1.230050
  H      2.548420    0.006170    1.189060
  H      2.985840    0.915160   -0.264500
  H      2.992220   -0.854300   -0.294840
  H      0.707890   -2.131050   -0.302950

 Total Charge           Charge          ....    0
 Multiplicity           Mult            ....    1
 Number of Electrons    NEL             ....   56
 Basis Dimension        Dim             ....  378

ORBITAL ENERGIES
----------------

  NO   OCC          E(Eh)            E(eV)
   0   2.0000     -20.545447      -559.0700
   1   2.0000     -11.269274      -306.6525
   2   2.0000     -11.267733      -306.6106
   3   2.0000     -11.226743      -305.4952
   4   2.0000     -11.222526      -305.3805
   5   2.0000     -11.220999      -305.3389
   6   2.0000     -11.217606      -305.2466
   7   2.0000      -1.362419       -37.0733
   8   2.0000      -1.088100       -29.6087
   9   2.0000      -1.034424       -28.1481
  10   2.0000      -0.934305       -25.4237
  11   2.0000      -0.875764       -23.8307
  12   2.0000      -0.825946       -22.4751
  13   2.0000      -0.763803       -20.7841
  14   2.0000      -0.667361       -18.1598
  15   2.0000      -0.639997       -17.4152
  16   2.0000      -0.616573       -16.7778
  17   2.0000      -0.604004       -16.4358
  18   2.0000      -0.595584       -16.2067
  19   2.0000      -0.548733       -14.9318
  20   2.0000      -0.537212       -14.6183
  21   2.0000      -0.526204       -14.3187
  22   2.0000      -0.517416       -14.0796
  23   2.0000      -0.485690       -13.2163
  24   2.0000      -0.471743       -12.8368
  25   2.0000      -0.448514       -12.2047
  26   2.0000      -0.442325       -12.0363
  27   2.0000      -0.398628       -10.8472
  28   0.0000       0.140598         3.8259
  29   0.0000       0.155508         4.2316
  30   0.0000       0.158280         4.3070
  31   0.0000       0.178379         4.8539
  32   0.0000       0.196342         5.3427

MULLIKEN ATOMIC CHARGES
-----------------------
   0 C :    0.038229
   1 O :   -0.391107
   2 C :    0.029781
   3 C :   -0.197905
   4 C :   -0.200676
   5 C :   -0.078798
   6 C :   -0.309282
   7 H :    0.105576
   8 H :    0.060089
   9 H :    0.102281
  10 H :    0.092079
  11 H :    0.089443
  12 H :    0.106853
  13 H :    0.099553
  14 H :    0.056615
  15 H :    0.088618
  16 H :    0.101379
  17 H :    0.101129
  18 H :    0.106143
Sum of atomic charges:    0.0000000

LOEWDIN ATOMIC CHARGES
----------------------
   0 C :   -0.050338
   1 O :    0.243088
   2 C :   -0.053524
   3 C :    0.052622
   4 C :    0.058821
   5 C :   -0.028232
   6 C :    0.112871
   7 H :   -0.028616
   8 H :   -0.038311
   9 H :   -0.024679
  10 H :   -0.024895
  11 H :   -0.025334
  12 H :   -0.025608
  13 H :   -0.021984
  14 H :   -0.037134
  15 H :   -0.028492
  16 H :   -0.026098
  17 H :   -0.026777
  18 H :   -0.027379

  Mayer bond orders larger than 0.1
B(  0-C ,  1-O ) :   0.9961 B(  0-C ,  5-C ) :   0.9530 B(  0-C , 14-H ) :   0.9806
B(  0-C , 18-H ) :   0.9876 B(  1-O ,  2-C ) :   0.9872 B(  2-C ,  3-C ) :   0.9507
B(  2-C ,  7-H ) :   0.9901 B(  2-C ,  8-H ) :   0.9844 B(  3-C ,  4-C ) :   0.9590
B(  3-C ,  9-H ) :   0.9857 B(  3-C , 10-H ) :   0.9804 B(  4-C ,  5-C ) :   0.9467
B(  4-C , 11-H ) :   0.9828 B(  4-C , 12-H ) :   0.9916 B(  5-C ,  6-C ) :   0.9545
B(  5-C , 13-H ) :   0.9739 B(  6-C , 15-H ) :   0.9785 B(  6-C , 16-H ) :   0.9836
B(  6-C , 17-H ) :   0.9864

E(0)                                       ...   -309.160642775
E(0)                                       ...   -309.160642775
E(CORR)(strong-pairs)                      ...     -1.331722356
E(CORR)(weak-pairs)                        ...     -0.001335724
E(CORR)(corrected)                         ...     -1.333058080
E(TOT)                                     ...   -310.493700854
E(CCSD(T))                                 ...   -310.546198852
FINAL SINGLE POINT ENERGY      -310.546198852185

DIPOLE MOMENT
-------------
                                X             Y             Z
Electronic contribution:     -3.56289      -2.65663      -1.22831
Nuclear contribution   :      3.83166       3.15750       1.46842
                        -----------------------------------------
Total Dipole Moment    :      0.26877       0.50087       0.24012
                        -----------------------------------------
Magnitude (a.u.)       :      0.61706
Magnitude (Debye)      :      1.56844

Rotational constants in cm-1:     0.146333     0.075282     0.054537
Rotational constants in MHz :  4386.962523  2256.896557  1634.969330

                             ****ORCA TERMINATED NORMALLY****
TOTAL RUN TIME: 0 days 0 hours 10 minutes 16 seconds 37 msec
