                         Program Version 4.1.x  -  STABLE  -
|  1> ! RHF DLPNO-CCSD(T) cc-pVTZ RIJK cc-pVTZ/JK cc-pVTZ/C
|  2> ! KDIIS SOSCF TightSCF TightPNO
|  3>
|  4> %pal nprocs 8 end
|  5>
|  6> %maxcore 8000
|  7>
|  8> %scf maxiter 300
|  9>      shift shift 0.2 erroff 0.1 end
| 10> end
| 11>
| 12> * xyzfile 0 1 3_OH_hexahydropyrimidine.xyz
| 13>
| 14>
| 15>                          ****END OF INPUT****

CARTESIAN COORDINATES (ANGSTROEM)
---------------------------------
  C     -1.695520    0.032110   -0.126110
  N     -0.962970   -1.226200   -0.278830
  C      0.224060   -1.267150    0.578990
  C      1.122080   -0.028530    0.442510
  C      0.271080    1.247180    0.592950
  N     -0.912420    1.264900   -0.269580
  O      1.725130   -0.103450   -0.860110
  H      2.332380    0.639400   -0.972520
  H     -0.618710    1.365580   -1.239010
  H     -0.677490   -1.342520   -1.248620
  H      1.903870   -0.053630    1.218160
  H     -0.107700   -1.342960    1.623610
  H      0.801660   -2.168200    0.350660
  H      0.875720    2.140270    0.388300
  H     -0.062270    1.324740    1.637800
  H     -2.515740    0.053010   -0.849210
  H     -2.135130    0.039350    0.880470

 Total Charge           Charge          ....    0
 Multiplicity           Mult            ....    1
 Number of Electrons    NEL             ....   56
 Basis Dimension        Dim             ....  350

ORBITAL ENERGIES
----------------

  NO   OCC          E(Eh)            E(eV)
   0   2.0000     -20.558100      -559.4143
   1   2.0000     -15.538828      -422.8330
   2   2.0000     -15.535511      -422.7428
   3   2.0000     -11.279412      -306.9284
   4   2.0000     -11.270498      -306.6858
   5   2.0000     -11.252749      -306.2029
   6   2.0000     -11.247455      -306.0588
   7   2.0000      -1.360276       -37.0150
   8   2.0000      -1.237237       -33.6669
   9   2.0000      -1.150822       -31.3155
  10   2.0000      -1.022704       -27.8292
  11   2.0000      -0.890029       -24.2189
  12   2.0000      -0.871194       -23.7064
  13   2.0000      -0.787820       -21.4377
  14   2.0000      -0.696704       -18.9583
  15   2.0000      -0.673819       -18.3355
  16   2.0000      -0.651864       -17.7381
  17   2.0000      -0.626139       -17.0381
  18   2.0000      -0.605215       -16.4687
  19   2.0000      -0.568835       -15.4788
  20   2.0000      -0.540611       -14.7108
  21   2.0000      -0.535509       -14.5719
  22   2.0000      -0.511347       -13.9145
  23   2.0000      -0.502593       -13.6763
  24   2.0000      -0.487016       -13.2524
  25   2.0000      -0.459825       -12.5125
  26   2.0000      -0.397677       -10.8213
  27   2.0000      -0.348429        -9.4812
  28   0.0000       0.129581         3.5261
  29   0.0000       0.150860         4.1051
  30   0.0000       0.167063         4.5460
  31   0.0000       0.182770         4.9734
  32   0.0000       0.197170         5.3653

MULLIKEN ATOMIC CHARGES
-----------------------
   0 C :    0.000511
   1 N :   -0.288331
   2 C :   -0.085058
   3 C :    0.098477
   4 C :   -0.104467
   5 N :   -0.279482
   6 O :   -0.441048
   7 H :    0.219873
   8 H :    0.103596
   9 H :    0.112015
  10 H :    0.095064
  11 H :    0.088863
  12 H :    0.108845
  13 H :    0.094286
  14 H :    0.091916
  15 H :    0.102793
  16 H :    0.082148
Sum of atomic charges:    0.0000000

LOEWDIN ATOMIC CHARGES
----------------------
   0 C :   -0.092260
   1 N :    0.286321
   2 C :   -0.016799
   3 C :   -0.127332
   4 C :   -0.025457
   5 N :    0.283889
   6 O :    0.308784
   7 H :   -0.193997
   8 H :   -0.113593
   9 H :   -0.110343
  10 H :   -0.035210
  11 H :   -0.025255
  12 H :   -0.024031
  13 H :   -0.031422
  14 H :   -0.023440
  15 H :   -0.029786
  16 H :   -0.030070

  Mayer bond orders larger than 0.1
B(  0-C ,  1-N ) :   1.0059 B(  0-C ,  5-N ) :   0.9979 B(  0-C , 15-H ) :   0.9974
B(  0-C , 16-H ) :   0.9890 B(  1-N ,  2-C ) :   1.0057 B(  1-N ,  9-H ) :   0.9930
B(  2-C ,  3-C ) :   0.9274 B(  2-C , 11-H ) :   0.9906 B(  2-C , 12-H ) :   0.9935
B(  3-C ,  4-C ) :   0.9340 B(  3-C ,  6-O ) :   0.9622 B(  3-C , 10-H ) :   0.9932
B(  4-C ,  5-N ) :   1.0035 B(  4-C , 13-H ) :   0.9964 B(  4-C , 14-H ) :   0.9836
B(  5-N ,  8-H ) :   0.9940 B(  6-O ,  7-H ) :   0.9912

E(0)                                       ...   -341.155345418
E(0)                                       ...   -341.155345418
E(CORR)(strong-pairs)                      ...     -1.387567546
E(CORR)(weak-pairs)                        ...     -0.001361302
E(CORR)(corrected)                         ...     -1.388928848
E(TOT)                                     ...   -342.544274266
E(CCSD(T))                                 ...   -342.599529693
FINAL SINGLE POINT ENERGY      -342.599529692793

DIPOLE MOMENT
-------------
                                X             Y             Z
Electronic contribution:      0.85060      -0.24320      -1.71754
Nuclear contribution   :     -0.19280       0.67306       1.82556
                        -----------------------------------------
Total Dipole Moment    :      0.65780       0.42986       0.10802
                        -----------------------------------------
Magnitude (a.u.)       :      0.79319
Magnitude (Debye)      :      2.01612

Rotational constants in cm-1:     0.123938     0.091991     0.068937
Rotational constants in MHz :  3715.572258  2757.812012  2066.674787

                             ****ORCA TERMINATED NORMALLY****
TOTAL RUN TIME: 0 days 0 hours 10 minutes 21 seconds 321 msec
