                         Program Version 4.1.x  -  STABLE  -
|  1> ! RHF DLPNO-CCSD(T) cc-pVTZ RIJK cc-pVTZ/JK cc-pVTZ/C
|  2> ! KDIIS SOSCF TightSCF TightPNO
|  3>
|  4> %pal nprocs 8 end
|  5>
|  6> %maxcore 8000
|  7>
|  8> %scf maxiter 300
|  9>      shift shift 0.2 erroff 0.1 end
| 10> end
| 11>
| 12> * xyzfile 0 1 3_OH_hexahydropyrimidine_HB.xyz
| 13>
| 14>
| 15>                          ****END OF INPUT****

CARTESIAN COORDINATES (ANGSTROEM)
---------------------------------
  C      1.666200    0.021450   -0.115410
  N      0.785680    1.183970   -0.345660
  C     -0.299980    1.217730    0.643500
  C     -1.147970   -0.042420    0.413850
  C     -0.253710   -1.288150    0.569820
  N      0.957070   -1.236140   -0.261150
  O     -1.741640    0.003810   -0.884880
  H     -1.085270    0.422770   -1.465320
  H      0.708880   -1.381580   -1.236680
  H      1.315700    2.051290   -0.347570
  H     -1.974130   -0.083990    1.133070
  H      0.071780    1.228750    1.684990
  H     -0.907960    2.114220    0.486670
  H     -0.821030   -2.186010    0.308320
  H      0.054180   -1.382350    1.621190
  H      2.491160    0.058160   -0.832730
  H      2.093260    0.041760    0.904150

 Total Charge           Charge          ....    0
 Multiplicity           Mult            ....    1
 Number of Electrons    NEL             ....   56
 Basis Dimension        Dim             ....  350

ORBITAL ENERGIES
----------------

  NO   OCC          E(Eh)            E(eV)
   0   2.0000     -20.541389      -558.9596
   1   2.0000     -15.552570      -423.2069
   2   2.0000     -15.542755      -422.9399
   3   2.0000     -11.281680      -306.9901
   4   2.0000     -11.274574      -306.7968
   5   2.0000     -11.255868      -306.2878
   6   2.0000     -11.246881      -306.0432
   7   2.0000      -1.349781       -36.7294
   8   2.0000      -1.244448       -33.8631
   9   2.0000      -1.158638       -31.5281
  10   2.0000      -1.021454       -27.7952
  11   2.0000      -0.892330       -24.2815
  12   2.0000      -0.876000       -23.8372
  13   2.0000      -0.780968       -21.2512
  14   2.0000      -0.709315       -19.3014
  15   2.0000      -0.667127       -18.1534
  16   2.0000      -0.639346       -17.3975
  17   2.0000      -0.628272       -17.0961
  18   2.0000      -0.601525       -16.3683
  19   2.0000      -0.594293       -16.1715
  20   2.0000      -0.568518       -15.4702
  21   2.0000      -0.540317       -14.7028
  22   2.0000      -0.513036       -13.9604
  23   2.0000      -0.495794       -13.4912
  24   2.0000      -0.467717       -12.7272
  25   2.0000      -0.453507       -12.3406
  26   2.0000      -0.387180       -10.5357
  27   2.0000      -0.368609       -10.0304
  28   0.0000       0.134237         3.6528
  29   0.0000       0.152926         4.1613
  30   0.0000       0.167942         4.5699
  31   0.0000       0.176629         4.8063
  32   0.0000       0.196414         5.3447

MULLIKEN ATOMIC CHARGES
-----------------------
   0 C :    0.001694
   1 N :   -0.325671
   2 C :   -0.111689
   3 C :    0.116582
   4 C :   -0.080597
   5 N :   -0.288644
   6 O :   -0.461965
   7 H :    0.233406
   8 H :    0.113304
   9 H :    0.128277
  10 H :    0.115700
  11 H :    0.079067
  12 H :    0.112235
  13 H :    0.106630
  14 H :    0.087111
  15 H :    0.101870
  16 H :    0.072691
Sum of atomic charges:   -0.0000000

LOEWDIN ATOMIC CHARGES
----------------------
   0 C :   -0.089946
   1 N :    0.282000
   2 C :   -0.014957
   3 C :   -0.128248
   4 C :   -0.013828
   5 N :    0.294694
   6 O :    0.305731
   7 H :   -0.199290
   8 H :   -0.108418
   9 H :   -0.112058
  10 H :   -0.026280
  11 H :   -0.037901
  12 H :   -0.027543
  13 H :   -0.024716
  14 H :   -0.027296
  15 H :   -0.030893
  16 H :   -0.041050

  Mayer bond orders larger than 0.1
B(  0-C ,  1-N ) :   0.9688 B(  0-C ,  5-N ) :   1.0311 B(  0-C , 15-H ) :   0.9933
B(  0-C , 16-H ) :   0.9847 B(  1-N ,  2-C ) :   0.9606 B(  1-N ,  9-H ) :   0.9879
B(  2-C ,  3-C ) :   0.9511 B(  2-C , 11-H ) :   0.9833 B(  2-C , 12-H ) :   0.9897
B(  3-C ,  4-C ) :   0.9347 B(  3-C ,  6-O ) :   0.9761 B(  3-C , 10-H ) :   0.9928
B(  4-C ,  5-N ) :   0.9931 B(  4-C , 13-H ) :   0.9932 B(  4-C , 14-H ) :   0.9863
B(  5-N ,  8-H ) :   0.9945 B(  6-O ,  7-H ) :   0.9674

E(0)                                       ...   -341.155967631
E(0)                                       ...   -341.155967631
E(CORR)(strong-pairs)                      ...     -1.388656192
E(CORR)(weak-pairs)                        ...     -0.001393869
E(CORR)(corrected)                         ...     -1.390050061
E(TOT)                                     ...   -342.546017693
E(CCSD(T))                                 ...   -342.601459437
FINAL SINGLE POINT ENERGY      -342.601459437015

DIPOLE MOMENT
-------------
                                X             Y             Z
Electronic contribution:     -1.37608      -0.27167      -1.93313
Nuclear contribution   :      1.98669       0.90901       2.30511
                        -----------------------------------------
Total Dipole Moment    :      0.61061       0.63734       0.37198
                        -----------------------------------------
Magnitude (a.u.)       :      0.95782
Magnitude (Debye)      :      2.43458

Rotational constants in cm-1:     0.123504     0.094020     0.070667
Rotational constants in MHz :  3702.562370  2818.634642  2118.533836

                             ****ORCA TERMINATED NORMALLY****
TOTAL RUN TIME: 0 days 0 hours 11 minutes 5 seconds 691 msec
