                         Program Version 4.1.x  -  STABLE  -
|  1> ! RHF DLPNO-CCSD(T) cc-pVTZ RIJK cc-pVTZ/JK cc-pVTZ/C
|  2> ! KDIIS SOSCF TightSCF TightPNO
|  3>
|  4> %pal nprocs 8 end
|  5>
|  6> %maxcore 8000
|  7>
|  8> %scf maxiter 300
|  9>      shift shift 0.2 erroff 0.1 end
| 10> end
| 11>
| 12> * xyzfile 1 1 3b_aminotropane_2b.xyz
| 13>
| 14>
| 15>                          ****END OF INPUT****

CARTESIAN COORDINATES (ANGSTROEM)
---------------------------------
  C     -1.569180   -1.067240   -0.777870
  C     -0.462250   -0.069820   -1.178750
  N     -0.450610    0.900800   -0.000020
  C     -0.462240   -0.069710    1.178750
  C     -1.569120   -1.067250    0.777920
  C      0.958750   -0.699030    1.272290
  C      1.800450   -0.460050    0.000030
  C      0.958720   -0.699250   -1.272170
  C     -1.547740    1.912010   -0.000060
  N      2.240750    0.960380   -0.000110
  H     -0.704860    0.493220   -2.082050
  H     -0.704950    0.493360    2.082010
  H      1.493320   -0.297240   -2.139040
  H      0.859970   -1.774840   -1.442820
  H      0.860050   -1.774580    1.443210
  H      1.493340   -0.296770    2.139060
  H      2.651650   -1.150990    0.000060
  H     -2.520000    1.420170    0.000070
  H     -1.449610    2.533450    0.891460
  H     -1.449740    2.533250   -0.891720
  H      2.811990    1.168790   -0.817270
  H      2.812020    1.168920    0.816990
  H     -2.539350   -0.750350    1.169040
  H     -1.368010   -2.052950    1.202090
  H     -2.539420   -0.750220   -1.168890
  H     -1.368220   -2.052960   -1.202080
  H      0.486470    1.383540   -0.000060

 Total Charge           Charge          ....    1
 Multiplicity           Mult            ....    1
 Number of Electrons    NEL             ....   78
 Basis Dimension        Dim             ....  538

ORBITAL ENERGIES
----------------

  NO   OCC          E(Eh)            E(eV)
   0   2.0000     -15.810986      -430.2388
   1   2.0000     -15.702513      -427.2871
   2   2.0000     -11.439150      -311.2751
   3   2.0000     -11.439136      -311.2747
   4   2.0000     -11.427286      -310.9523
   5   2.0000     -11.418021      -310.7002
   6   2.0000     -11.382326      -309.7288
   7   2.0000     -11.382310      -309.7284
   8   2.0000     -11.378973      -309.6376
   9   2.0000     -11.378424      -309.6226
  10   2.0000      -1.468073       -39.9483
  11   2.0000      -1.342634       -36.5349
  12   2.0000      -1.238491       -33.7010
  13   2.0000      -1.196688       -32.5635
  14   2.0000      -1.172276       -31.8993
  15   2.0000      -1.107848       -30.1461
  16   2.0000      -1.048540       -28.5322
  17   2.0000      -0.998167       -27.1615
  18   2.0000      -0.951694       -25.8969
  19   2.0000      -0.933113       -25.3913
  20   2.0000      -0.862871       -23.4799
  21   2.0000      -0.857350       -23.3297
  22   2.0000      -0.820927       -22.3386
  23   2.0000      -0.796753       -21.6808
  24   2.0000      -0.770301       -20.9610
  25   2.0000      -0.758912       -20.6511
  26   2.0000      -0.735638       -20.0177
  27   2.0000      -0.732377       -19.9290
  28   2.0000      -0.730811       -19.8864
  29   2.0000      -0.701348       -19.0846
  30   2.0000      -0.698623       -19.0105
  31   2.0000      -0.684234       -18.6190
  32   2.0000      -0.660091       -17.9620
  33   2.0000      -0.639856       -17.4114
  34   2.0000      -0.638599       -17.3772
  35   2.0000      -0.622082       -16.9277
  36   2.0000      -0.616841       -16.7851
  37   2.0000      -0.610361       -16.6088
  38   2.0000      -0.551048       -14.9948
  39   0.0000      -0.015990        -0.4351
  40   0.0000       0.010389         0.2827
  41   0.0000       0.024548         0.6680
  42   0.0000       0.027473         0.7476
  43   0.0000       0.041672         1.1339

MULLIKEN ATOMIC CHARGES
-----------------------
   0 C :   -0.246612
   1 C :   -0.038091
   2 N :    0.000473
   3 C :   -0.038116
   4 C :   -0.246604
   5 C :   -0.236494
   6 C :   -0.028158
   7 C :   -0.236507
   8 C :   -0.218284
   9 N :   -0.401266
  10 H :    0.172385
  11 H :    0.172380
  12 H :    0.153319
  13 H :    0.145354
  14 H :    0.145355
  15 H :    0.153311
  16 H :    0.156213
  17 H :    0.143180
  18 H :    0.148123
  19 H :    0.148125
  20 H :    0.176062
  21 H :    0.176059
  22 H :    0.158163
  23 H :    0.154659
  24 H :    0.158154
  25 H :    0.154666
  26 H :    0.174153
Sum of atomic charges:    1.0000000

LOEWDIN ATOMIC CHARGES
----------------------
   0 C :    0.088158
   1 C :    0.026404
   2 N :    0.545201
   3 C :    0.026380
   4 C :    0.088175
   5 C :    0.084708
   6 C :   -0.052516
   7 C :    0.084715
   8 C :    0.149407
   9 N :    0.392584
  10 H :   -0.012981
  11 H :   -0.012978
  12 H :   -0.012547
  13 H :   -0.007719
  14 H :   -0.007719
  15 H :   -0.012543
  16 H :   -0.017564
  17 H :   -0.013298
  18 H :   -0.010981
  19 H :   -0.010988
  20 H :   -0.086108
  21 H :   -0.086114
  22 H :   -0.016047
  23 H :   -0.012182
  24 H :   -0.016044
  25 H :   -0.012176
  26 H :   -0.085227

  Mayer bond orders larger than 0.1
B(  0-C ,  1-C ) :   0.9399 B(  0-C ,  4-C ) :   0.9133 B(  0-C , 24-H ) :   0.9824
B(  0-C , 25-H ) :   0.9806 B(  1-C ,  2-N ) :   0.8578 B(  1-C ,  7-C ) :   0.9305
B(  1-C , 10-H ) :   0.9861 B(  2-N ,  3-C ) :   0.8578 B(  2-N ,  8-C ) :   0.9060
B(  2-N , 26-H ) :   0.8683 B(  3-C ,  4-C ) :   0.9399 B(  3-C ,  5-C ) :   0.9305
B(  3-C , 11-H ) :   0.9861 B(  4-C , 22-H ) :   0.9824 B(  4-C , 23-H ) :   0.9806
B(  5-C ,  6-C ) :   0.9330 B(  5-C , 14-H ) :   0.9865 B(  5-C , 15-H ) :   0.9865
B(  6-C ,  7-C ) :   0.9330 B(  6-C ,  9-N ) :   0.9147 B(  6-C , 16-H ) :   0.9903
B(  7-C , 12-H ) :   0.9865 B(  7-C , 13-H ) :   0.9865 B(  8-C , 17-H ) :   0.9702
B(  8-C , 18-H ) :   0.9705 B(  8-C , 19-H ) :   0.9705 B(  9-N , 20-H ) :   0.9728
B(  9-N , 21-H ) :   0.9728 B(  9-N , 26-H ) :   0.1856

E(0)                                       ...   -421.683351598
E(0)                                       ...   -421.683351598
E(CORR)(strong-pairs)                      ...     -1.866512167
E(CORR)(weak-pairs)                        ...     -0.002415244
E(CORR)(corrected)                         ...     -1.868927411
E(TOT)                                     ...   -423.552279009
E(CCSD(T))                                 ...   -423.630056489
FINAL SINGLE POINT ENERGY      -423.630056489384

DIPOLE MOMENT
-------------
                                X             Y             Z
Electronic contribution:      1.25264       0.27309      -0.00011
Nuclear contribution   :     -1.22364       0.32010       0.00006
                        -----------------------------------------
Total Dipole Moment    :      0.02900       0.59319      -0.00004
                        -----------------------------------------
Magnitude (a.u.)       :      0.59390
Magnitude (Debye)      :      1.50957

Rotational constants in cm-1:     0.063580     0.041883     0.038978
Rotational constants in MHz :  1906.069451  1255.606172  1168.520634

                             ****ORCA TERMINATED NORMALLY****
TOTAL RUN TIME: 0 days 0 hours 52 minutes 38 seconds 163 msec
