                         Program Version 4.1.x  -  STABLE  -
|  1> ! RHF DLPNO-CCSD(T) cc-pVTZ RIJK cc-pVTZ/JK cc-pVTZ/C
|  2> ! KDIIS SOSCF TightSCF TightPNO
|  3>
|  4> %pal nprocs 8 end
|  5>
|  6> %maxcore 8000
|  7>
|  8> %scf maxiter 300
|  9>      shift shift 0.2 erroff 0.1 end
| 10> end
| 11>
| 12> * xyzfile 2 1 3b_aminotropane_3c.xyz
| 13>
| 14>
| 15>                          ****END OF INPUT****

CARTESIAN COORDINATES (ANGSTROEM)
---------------------------------
  N     -1.355100    0.667000   -0.000000
  C     -0.768100   -0.109100   -1.187700
  C     -0.768100   -0.109100    1.187700
  C      0.746200    0.164700   -1.277500
  C      0.746200    0.164700    1.277400
  C      1.455700   -0.318600    0.000000
  C     -1.277300    2.169400   -0.000000
  N      2.919500    0.130900    0.000000
  C     -1.123500   -1.556900    0.782800
  C     -1.123500   -1.556900   -0.782800
  H     -1.263500    0.227500   -2.100500
  H     -1.263500    0.227600    2.100500
  H      1.120900   -0.366500   -2.159100
  H      0.929000    1.232000   -1.452700
  H      0.928900    1.232000    1.452600
  H      1.120900   -0.366400    2.159100
  H      1.518400   -1.409800    0.000000
  H     -0.243900    2.505200   -0.000300
  H     -1.785500    2.539400   -0.892100
  H     -1.785000    2.539400    0.892300
  H      3.422000   -0.220800    0.826200
  H      3.422000   -0.220900   -0.826200
  H     -2.108600   -1.825000    1.173000
  H     -0.420000   -2.273900    1.212400
  H     -2.108600   -1.825000   -1.172900
  H     -0.420100   -2.274000   -1.212400
  H     -2.358900    0.450300   -0.000000
  H      3.018000    1.154200   -0.000000

 Total Charge           Charge          ....    2
 Multiplicity           Mult            ....    1
 Number of Electrons    NEL             ....   78
 Basis Dimension        Dim             ....  552

ORBITAL ENERGIES
----------------

  NO   OCC          E(Eh)            E(eV)
   0   2.0000     -16.010641      -435.6717
   1   2.0000     -15.974665      -434.6927
   2   2.0000     -11.621427      -316.2351
   3   2.0000     -11.591877      -315.4310
   4   2.0000     -11.591861      -315.4306
   5   2.0000     -11.563990      -314.6722
   6   2.0000     -11.553651      -314.3908
   7   2.0000     -11.553635      -314.3904
   8   2.0000     -11.517570      -313.4090
   9   2.0000     -11.517042      -313.3946
  10   2.0000      -1.627533       -44.2874
  11   2.0000      -1.615045       -43.9476
  12   2.0000      -1.414321       -38.4856
  13   2.0000      -1.357172       -36.9305
  14   2.0000      -1.345915       -36.6242
  15   2.0000      -1.239659       -33.7328
  16   2.0000      -1.209522       -32.9128
  17   2.0000      -1.198950       -32.6251
  18   2.0000      -1.098747       -29.8984
  19   2.0000      -1.097132       -29.8545
  20   2.0000      -1.065503       -28.9938
  21   2.0000      -1.063603       -28.9421
  22   2.0000      -1.035922       -28.1889
  23   2.0000      -0.996313       -27.1110
  24   2.0000      -0.974811       -26.5260
  25   2.0000      -0.928017       -25.2526
  26   2.0000      -0.920618       -25.0513
  27   2.0000      -0.902620       -24.5615
  28   2.0000      -0.892702       -24.2917
  29   2.0000      -0.868345       -23.6289
  30   2.0000      -0.866407       -23.5761
  31   2.0000      -0.853559       -23.2265
  32   2.0000      -0.838104       -22.8060
  33   2.0000      -0.814487       -22.1633
  34   2.0000      -0.798651       -21.7324
  35   2.0000      -0.787745       -21.4356
  36   2.0000      -0.778355       -21.1801
  37   2.0000      -0.766287       -20.8517
  38   2.0000      -0.757472       -20.6119
  39   0.0000      -0.181639        -4.9426
  40   0.0000      -0.147917        -4.0250
  41   0.0000      -0.140871        -3.8333
  42   0.0000      -0.120054        -3.2668
  43   0.0000      -0.107324        -2.9204

MULLIKEN ATOMIC CHARGES
-----------------------
   0 N :    0.008777
   1 C :   -0.034403
   2 C :   -0.034410
   3 C :   -0.281458
   4 C :   -0.281471
   5 C :   -0.041967
   6 C :   -0.208218
   7 N :    0.018126
   8 C :   -0.262534
   9 C :   -0.262562
  10 H :    0.205097
  11 H :    0.205093
  12 H :    0.201529
  13 H :    0.175172
  14 H :    0.175174
  15 H :    0.201521
  16 H :    0.198481
  17 H :    0.126547
  18 H :    0.177855
  19 H :    0.177871
  20 H :    0.222203
  21 H :    0.222220
  22 H :    0.191225
  23 H :    0.166374
  24 H :    0.191236
  25 H :    0.166392
  26 H :    0.165590
  27 H :    0.210541
Sum of atomic charges:    2.0000000

LOEWDIN ATOMIC CHARGES
----------------------
   0 N :    0.551236
   1 C :    0.035267
   2 C :    0.035261
   3 C :    0.083293
   4 C :    0.083248
   5 C :    0.024154
   6 C :    0.170690
   7 N :    0.725643
   8 C :    0.100715
   9 C :    0.100723
  10 H :    0.004201
  11 H :    0.004217
  12 H :    0.009520
  13 H :   -0.009195
  14 H :   -0.009196
  15 H :    0.009543
  16 H :    0.001427
  17 H :   -0.023880
  18 H :    0.001613
  19 H :    0.001569
  20 H :    0.036591
  21 H :    0.036627
  22 H :    0.000709
  23 H :   -0.006051
  24 H :    0.000693
  25 H :   -0.006044
  26 H :    0.009506
  27 H :    0.027918

  Mayer bond orders larger than 0.1
B(  0-N ,  1-C ) :   0.8432 B(  0-N ,  2-C ) :   0.8432 B(  0-N ,  6-C ) :   0.8803
B(  0-N , 26-H ) :   0.9657 B(  1-C ,  3-C ) :   0.9491 B(  1-C ,  9-C ) :   0.9361
B(  1-C , 10-H ) :   0.9687 B(  2-C ,  4-C ) :   0.9490 B(  2-C ,  8-C ) :   0.9361
B(  2-C , 11-H ) :   0.9687 B(  3-C ,  5-C ) :   0.9325 B(  3-C , 12-H ) :   0.9589
B(  3-C , 13-H ) :   0.9722 B(  4-C ,  5-C ) :   0.9325 B(  4-C , 14-H ) :   0.9722
B(  4-C , 15-H ) :   0.9589 B(  5-C ,  7-N ) :   0.8526 B(  5-C , 16-H ) :   0.9541
B(  6-C , 17-H ) :   0.9673 B(  6-C , 18-H ) :   0.9592 B(  6-C , 19-H ) :   0.9592
B(  7-N , 20-H ) :   0.9454 B(  7-N , 21-H ) :   0.9454 B(  7-N , 27-H ) :   0.9491
B(  8-C ,  9-C ) :   0.9090 B(  8-C , 22-H ) :   0.9716 B(  8-C , 23-H ) :   0.9787
B(  9-C , 24-H ) :   0.9716 B(  9-C , 25-H ) :   0.9787

E(0)                                       ...   -421.925787784
E(0)                                       ...   -421.925787784
E(CORR)(strong-pairs)                      ...     -1.856963832
E(CORR)(weak-pairs)                        ...     -0.002446162
E(CORR)(corrected)                         ...     -1.859409995
E(TOT)                                     ...   -423.785197779
E(CCSD(T))                                 ...   -423.860685176
FINAL SINGLE POINT ENERGY      -423.860685175525

DIPOLE MOMENT
-------------
                                X             Y             Z
Electronic contribution:      0.49552      -0.59032      -0.00006
Nuclear contribution   :      1.82933       1.40483       0.00006
                        -----------------------------------------
Total Dipole Moment    :      2.32486       0.81451      -0.00000
                        -----------------------------------------
Magnitude (a.u.)       :      2.46341
Magnitude (Debye)      :      6.26148

Rotational constants in cm-1:     0.058945     0.039104     0.035198
Rotational constants in MHz :  1767.112158  1172.310853  1055.194648

                             ****ORCA TERMINATED NORMALLY****
TOTAL RUN TIME: 0 days 0 hours 51 minutes 9 seconds 949 msec
