                         Program Version 4.1.x  -  STABLE  -
|  1> ! RHF DLPNO-CCSD(T) cc-pVTZ RIJK cc-pVTZ/JK cc-pVTZ/C
|  2> ! KDIIS SOSCF TightSCF TightPNO
|  3>
|  4> %pal nprocs 8 end
|  5>
|  6> %maxcore 8000
|  7>
|  8> %scf maxiter 300
|  9>      shift shift 0.2 erroff 0.1 end
| 10> end
| 11>
| 12> * xyzfile 0 1 3b_aminotropane_1a.xyz
| 13>
| 14>
| 15>                          ****END OF INPUT****

CARTESIAN COORDINATES (ANGSTROEM)
---------------------------------
  C      0.938980    0.777940    1.409270
  C      0.590080    1.145580   -0.068940
  N      1.069860    0.000000   -0.870990
  C      0.590080   -1.145570   -0.068950
  C      0.938950   -0.777940    1.409280
  C     -0.926690   -1.266790   -0.303300
  C     -1.673080   -0.000000    0.153280
  C     -0.926710    1.266800   -0.303300
  C      2.513780   -0.000010   -1.096680
  N     -3.039190   -0.000020   -0.394100
  H      1.087280    2.063800   -0.398520
  H      1.087310   -2.063790   -0.398520
  H     -1.322280    2.144170    0.227470
  H     -1.104240    1.413440   -1.374270
  H     -1.104230   -1.413430   -1.374260
  H     -1.322250   -2.144150    0.227470
  H     -1.686650   -0.000000    1.256830
  H      3.127620   -0.000010   -0.177650
  H      2.785450   -0.883840   -1.682780
  H      2.785470    0.883820   -1.682770
  H     -3.554270   -0.817990   -0.075260
  H     -3.554260    0.817980   -0.075290
  H      1.923720   -1.170930    1.681460
  H      0.220220   -1.201940    2.118170
  H      1.923750    1.170940    1.681430
  H      0.220280    1.201950    2.118180

 Total Charge           Charge          ....    0
 Multiplicity           Mult            ....    1
 Number of Electrons    NEL             ....   78
 Basis Dimension        Dim             ....  524

ORBITAL ENERGIES
----------------

  NO   OCC          E(Eh)            E(eV)
   0   2.0000     -15.534121      -422.7049
   1   2.0000     -15.530992      -422.6198
   2   2.0000     -11.247823      -306.0688
   3   2.0000     -11.246920      -306.0443
   4   2.0000     -11.246903      -306.0438
   5   2.0000     -11.238225      -305.8076
   6   2.0000     -11.216986      -305.2297
   7   2.0000     -11.216436      -305.2147
   8   2.0000     -11.209392      -305.0231
   9   2.0000     -11.209377      -305.0227
  10   2.0000      -1.237887       -33.6846
  11   2.0000      -1.171901       -31.8890
  12   2.0000      -1.048293       -28.5255
  13   2.0000      -1.016061       -27.6484
  14   2.0000      -0.998196       -27.1623
  15   2.0000      -0.910403       -24.7733
  16   2.0000      -0.871848       -23.7242
  17   2.0000      -0.805896       -21.9296
  18   2.0000      -0.776062       -21.1177
  19   2.0000      -0.718505       -19.5515
  20   2.0000      -0.668650       -18.1949
  21   2.0000      -0.654735       -17.8162
  22   2.0000      -0.639755       -17.4086
  23   2.0000      -0.617376       -16.7997
  24   2.0000      -0.587750       -15.9935
  25   2.0000      -0.582115       -15.8402
  26   2.0000      -0.552706       -15.0399
  27   2.0000      -0.551596       -15.0097
  28   2.0000      -0.541976       -14.7479
  29   2.0000      -0.537321       -14.6212
  30   2.0000      -0.504176       -13.7193
  31   2.0000      -0.498366       -13.5612
  32   2.0000      -0.463214       -12.6047
  33   2.0000      -0.461817       -12.5667
  34   2.0000      -0.442684       -12.0460
  35   2.0000      -0.441733       -12.0202
  36   2.0000      -0.431270       -11.7355
  37   2.0000      -0.381712       -10.3869
  38   2.0000      -0.349272        -9.5042
  39   0.0000       0.135092         3.6760
  40   0.0000       0.142259         3.8711
  41   0.0000       0.160383         4.3642
  42   0.0000       0.170098         4.6286
  43   0.0000       0.179366         4.8808

MULLIKEN ATOMIC CHARGES
-----------------------
   0 C :   -0.261020
   1 C :    0.018229
   2 N :   -0.260743
   3 C :    0.018240
   4 C :   -0.261019
   5 C :   -0.188663
   6 C :    0.025106
   7 C :   -0.188659
   8 C :   -0.193032
   9 N :   -0.388717
  10 H :    0.105823
  11 H :    0.105816
  12 H :    0.094209
  13 H :    0.103143
  14 H :    0.103144
  15 H :    0.094212
  16 H :    0.092534
  17 H :    0.054777
  18 H :    0.097748
  19 H :    0.097748
  20 H :    0.135686
  21 H :    0.135684
  22 H :    0.119591
  23 H :    0.110286
  24 H :    0.119594
  25 H :    0.110285
Sum of atomic charges:   -0.0000000

LOEWDIN ATOMIC CHARGES
----------------------
   0 C :    0.068833
   1 C :   -0.063915
   2 N :    0.248130
   3 C :   -0.063930
   4 C :    0.068838
   5 C :    0.063393
   6 C :   -0.082601
   7 C :    0.063396
   8 C :    0.034490
   9 N :    0.324890
  10 H :   -0.029216
  11 H :   -0.029210
  12 H :   -0.030421
  13 H :   -0.020649
  14 H :   -0.020651
  15 H :   -0.030424
  16 H :   -0.041897
  17 H :   -0.046027
  18 H :   -0.031570
  19 H :   -0.031571
  20 H :   -0.106892
  21 H :   -0.106882
  22 H :   -0.034516
  23 H :   -0.033543
  24 H :   -0.034515
  25 H :   -0.033544

  Mayer bond orders larger than 0.1
B(  0-C ,  1-C ) :   0.9354 B(  0-C ,  4-C ) :   0.9411 B(  0-C , 24-H ) :   0.9916
B(  0-C , 25-H ) :   0.9891 B(  1-C ,  2-N ) :   0.9667 B(  1-C ,  7-C ) :   0.9628
B(  1-C , 10-H ) :   0.9975 B(  2-N ,  3-C ) :   0.9667 B(  2-N ,  8-C ) :   0.9829
B(  3-C ,  4-C ) :   0.9354 B(  3-C ,  5-C ) :   0.9628 B(  3-C , 11-H ) :   0.9975
B(  4-C , 22-H ) :   0.9916 B(  4-C , 23-H ) :   0.9891 B(  5-C ,  6-C ) :   0.9445
B(  5-C , 14-H ) :   0.9808 B(  5-C , 15-H ) :   0.9924 B(  6-C ,  7-C ) :   0.9445
B(  6-C ,  9-N ) :   0.9834 B(  6-C , 16-H ) :   0.9930 B(  7-C , 12-H ) :   0.9924
B(  7-C , 13-H ) :   0.9808 B(  8-C , 17-H ) :   0.9639 B(  8-C , 18-H ) :   0.9863
B(  8-C , 19-H ) :   0.9863 B(  9-N , 20-H ) :   0.9872 B(  9-N , 21-H ) :   0.9872

E(0)                                       ...   -421.280841359
E(0)                                       ...   -421.280841359
E(CORR)(strong-pairs)                      ...     -1.866674856
E(CORR)(weak-pairs)                        ...     -0.002405823
E(CORR)(corrected)                         ...     -1.869080679
E(TOT)                                     ...   -423.149922038
E(CCSD(T))                                 ...   -423.228546223
FINAL SINGLE POINT ENERGY      -423.228546223447

DIPOLE MOMENT
-------------
                                X             Y             Z
Electronic contribution:     -1.45642      -0.00001      -1.39104
Nuclear contribution   :      1.56839       0.00003       2.15641
                        -----------------------------------------
Total Dipole Moment    :      0.11197       0.00002       0.76536
                        -----------------------------------------
Magnitude (a.u.)       :      0.77351
Magnitude (Debye)      :      1.96610

Rotational constants in cm-1:     0.077002     0.035215     0.034406
Rotational constants in MHz :  2308.449081  1055.726952  1031.453759

                             ****ORCA TERMINATED NORMALLY****
TOTAL RUN TIME: 0 days 0 hours 46 minutes 57 seconds 156 msec
