                         Program Version 4.1.x  -  STABLE  -
|  1> ! RHF DLPNO-CCSD(T) cc-pVTZ RIJK cc-pVTZ/JK cc-pVTZ/C
|  2> ! KDIIS SOSCF TightSCF TightPNO
|  3>
|  4> %pal nprocs 8 end
|  5>
|  6> %maxcore 8000
|  7>
|  8> %scf maxiter 300
|  9>      shift shift 0.2 erroff 0.1 end
| 10> end
| 11>
| 12> * xyzfile 1 1 3b_aminotropane_2a.xyz
| 13>
| 14>
| 15>                          ****END OF INPUT****

CARTESIAN COORDINATES (ANGSTROEM)
---------------------------------
  C      0.951090    0.779230    1.417440
  C      0.558650    1.187800   -0.017720
  N      1.074570   -0.000050   -0.841250
  C      0.558640   -1.187790   -0.017610
  C      0.951060   -0.779090    1.417520
  C     -0.952200   -1.270520   -0.264820
  C     -1.704350    0.000000    0.187490
  C     -0.952180    1.270490   -0.264920
  C      2.553080   -0.000060   -1.087690
  N     -3.035660   -0.000010   -0.413670
  H      1.065600    2.089160   -0.369950
  H      1.065590   -2.089210   -0.369730
  H     -1.338410    2.150530    0.260980
  H     -1.148710    1.437160   -1.332870
  H     -1.148710   -1.437290   -1.332770
  H     -1.338440   -2.150510    0.261150
  H     -1.735790    0.000040    1.289630
  H      3.081410   -0.000090   -0.136040
  H      2.813780   -0.893740   -1.656500
  H      2.813800    0.893650   -1.656450
  H     -3.573130   -0.817500   -0.134830
  H     -3.573090    0.817550   -0.134970
  H      1.935040   -1.173900    1.682110
  H      0.241110   -1.197250    2.134070
  H      1.935100    1.174030    1.681960
  H      0.241180    1.197490    2.133970
  H      0.608600   -0.000090   -1.753400

 Total Charge           Charge          ....    1
 Multiplicity           Mult            ....    1
 Number of Electrons    NEL             ....   78
 Basis Dimension        Dim             ....  538

ORBITAL ENERGIES
----------------

  NO   OCC          E(Eh)            E(eV)
   0   2.0000     -15.839132      -431.0047
   1   2.0000     -15.664610      -426.2557
   2   2.0000     -11.448735      -311.5359
   3   2.0000     -11.448721      -311.5355
   4   2.0000     -11.441847      -311.3485
   5   2.0000     -11.403971      -310.3178
   6   2.0000     -11.388276      -309.8908
   7   2.0000     -11.387733      -309.8760
   8   2.0000     -11.379456      -309.6507
   9   2.0000     -11.379438      -309.6503
  10   2.0000      -1.484094       -40.3843
  11   2.0000      -1.321326       -35.9551
  12   2.0000      -1.247102       -33.9354
  13   2.0000      -1.207970       -32.8705
  14   2.0000      -1.170344       -31.8467
  15   2.0000      -1.115297       -30.3488
  16   2.0000      -1.050031       -28.5728
  17   2.0000      -1.004587       -27.3362
  18   2.0000      -0.961634       -26.1674
  19   2.0000      -0.945412       -25.7260
  20   2.0000      -0.862409       -23.4674
  21   2.0000      -0.854059       -23.2401
  22   2.0000      -0.814825       -22.1725
  23   2.0000      -0.803269       -21.8581
  24   2.0000      -0.763515       -20.7763
  25   2.0000      -0.763049       -20.7636
  26   2.0000      -0.742441       -20.2028
  27   2.0000      -0.737531       -20.0692
  28   2.0000      -0.726300       -19.7636
  29   2.0000      -0.722387       -19.6571
  30   2.0000      -0.702557       -19.1176
  31   2.0000      -0.685652       -18.6575
  32   2.0000      -0.667395       -18.1607
  33   2.0000      -0.648157       -17.6373
  34   2.0000      -0.640525       -17.4296
  35   2.0000      -0.621242       -16.9049
  36   2.0000      -0.615572       -16.7506
  37   2.0000      -0.606088       -16.4925
  38   2.0000      -0.520131       -14.1535
  39   0.0000      -0.024904        -0.6777
  40   0.0000       0.009567         0.2603
  41   0.0000       0.012858         0.3499
  42   0.0000       0.018086         0.4922
  43   0.0000       0.034762         0.9459

MULLIKEN ATOMIC CHARGES
-----------------------
   0 C :   -0.258380
   1 C :   -0.037916
   2 N :    0.005619
   3 C :   -0.037921
   4 C :   -0.258384
   5 C :   -0.243466
   6 C :    0.031508
   7 C :   -0.243476
   8 C :   -0.207852
   9 N :   -0.374915
  10 H :    0.175616
  11 H :    0.175607
  12 H :    0.151601
  13 H :    0.137190
  14 H :    0.137184
  15 H :    0.151603
  16 H :    0.128749
  17 H :    0.146503
  18 H :    0.152847
  19 H :    0.152843
  20 H :    0.158443
  21 H :    0.158443
  22 H :    0.165016
  23 H :    0.158103
  24 H :    0.165012
  25 H :    0.158106
  26 H :    0.152316
Sum of atomic charges:    1.0000000

LOEWDIN ATOMIC CHARGES
----------------------
   0 C :    0.091337
   1 C :    0.023694
   2 N :    0.554940
   3 C :    0.023679
   4 C :    0.091338
   5 C :    0.072607
   6 C :   -0.082062
   7 C :    0.072609
   8 C :    0.162451
   9 N :    0.342935
  10 H :   -0.009104
  11 H :   -0.009098
  12 H :   -0.004193
  13 H :   -0.012160
  14 H :   -0.012155
  15 H :   -0.004196
  16 H :   -0.030833
  17 H :   -0.010317
  18 H :   -0.009474
  19 H :   -0.009473
  20 H :   -0.090088
  21 H :   -0.090092
  22 H :   -0.015734
  23 H :   -0.008539
  24 H :   -0.015730
  25 H :   -0.008539
  26 H :   -0.013802

  Mayer bond orders larger than 0.1
B(  0-C ,  1-C ) :   0.9336 B(  0-C ,  4-C ) :   0.9189 B(  0-C , 24-H ) :   0.9817
B(  0-C , 25-H ) :   0.9789 B(  1-C ,  2-N ) :   0.8446 B(  1-C ,  7-C ) :   0.9589
B(  1-C , 10-H ) :   0.9827 B(  2-N ,  3-C ) :   0.8446 B(  2-N ,  8-C ) :   0.8972
B(  2-N , 26-H ) :   0.9634 B(  3-C ,  4-C ) :   0.9336 B(  3-C ,  5-C ) :   0.9589
B(  3-C , 11-H ) :   0.9827 B(  4-C , 22-H ) :   0.9817 B(  4-C , 23-H ) :   0.9789
B(  5-C ,  6-C ) :   0.9234 B(  5-C , 14-H ) :   0.9788 B(  5-C , 15-H ) :   0.9739
B(  6-C ,  7-C ) :   0.9234 B(  6-C ,  9-N ) :   1.0113 B(  6-C , 16-H ) :   0.9764
B(  7-C , 12-H ) :   0.9739 B(  7-C , 13-H ) :   0.9788 B(  8-C , 17-H ) :   0.9665
B(  8-C , 18-H ) :   0.9691 B(  8-C , 19-H ) :   0.9691 B(  9-N , 20-H ) :   0.9761
B(  9-N , 21-H ) :   0.9761

E(0)                                       ...   -421.682523065
E(0)                                       ...   -421.682523065
E(CORR)(strong-pairs)                      ...     -1.861467312
E(CORR)(weak-pairs)                        ...     -0.002409499
E(CORR)(corrected)                         ...     -1.863876811
E(TOT)                                     ...   -423.546399876
E(CCSD(T))                                 ...   -423.623208108
FINAL SINGLE POINT ENERGY      -423.623208108086

DIPOLE MOMENT
-------------
                                X             Y             Z
Electronic contribution:     -0.72840      -0.00002      -0.84652
Nuclear contribution   :      2.03101       0.00004       0.58720
                        -----------------------------------------
Total Dipole Moment    :      1.30261       0.00002      -0.25932
                        -----------------------------------------
Magnitude (a.u.)       :      1.32817
Magnitude (Debye)      :      3.37595

Rotational constants in cm-1:     0.075166     0.034654     0.033816
Rotational constants in MHz :  2253.412670  1038.892621  1013.768863

                             ****ORCA TERMINATED NORMALLY****
TOTAL RUN TIME: 0 days 0 hours 51 minutes 5 seconds 983 msec
