                         Program Version 4.1.x  -  STABLE  -
|  1> ! RHF DLPNO-CCSD(T) cc-pVTZ RIJK cc-pVTZ/JK cc-pVTZ/C
|  2> ! KDIIS SOSCF TightSCF TightPNO
|  3>
|  4> %pal nprocs 8 end
|  5>
|  6> %maxcore 8000
|  7>
|  8> %scf maxiter 300
|  9>      shift shift 0.2 erroff 0.1 end
| 10> end
| 11>
| 12> * xyzfile 2 1 3b_aminotropane_3a.xyz
| 13>
| 14>
| 15>                          ****END OF INPUT****

CARTESIAN COORDINATES (ANGSTROEM)
---------------------------------
  N     -1.143700   -0.000200   -0.840100
  C     -0.605300   -1.185100   -0.032000
  C     -0.605200    1.185100   -0.032300
  C      0.912800   -1.277000   -0.298100
  C      0.912800    1.276900   -0.298400
  C      1.621800    0.000000    0.188500
  C     -2.644600   -0.000200   -1.027500
  N      3.085300   -0.000100   -0.260200
  C     -0.968600    0.780900    1.413300
  C     -0.968600   -0.780400    1.413500
  H     -1.098600   -2.096600   -0.374700
  H     -1.098500    2.096500   -0.375400
  H      1.294100   -2.162900    0.220800
  H      1.088700   -1.437400   -1.371500
  H      1.088700    1.437000   -1.371900
  H      1.294200    2.163000    0.220200
  H      1.681700    0.000200    1.279800
  H     -3.137000    0.000100   -0.057200
  H     -2.920200    0.893800   -1.588500
  H     -2.920200   -0.894400   -1.588000
  H      3.587900    0.826200    0.091300
  H      3.587800   -0.826200    0.091600
  H     -1.948200    1.176500    1.688400
  H     -0.259500    1.209200    2.125900
  H     -1.948200   -1.176000    1.688700
  H     -0.259500   -1.208600    2.126300
  H     -0.738900   -0.000300   -1.781700
  H      3.183700   -0.000200   -1.283800

 Total Charge           Charge          ....    2
 Multiplicity           Mult            ....    1
 Number of Electrons    NEL             ....   78
 Basis Dimension        Dim             ....  552

ORBITAL ENERGIES
----------------

  NO   OCC          E(Eh)            E(eV)
   0   2.0000     -16.010893      -435.6786
   1   2.0000     -15.973103      -434.6502
   2   2.0000     -11.622122      -316.2540
   3   2.0000     -11.590793      -315.4015
   4   2.0000     -11.590768      -315.4008
   5   2.0000     -11.555343      -314.4369
   6   2.0000     -11.555324      -314.4363
   7   2.0000     -11.555119      -314.4308
   8   2.0000     -11.516351      -313.3759
   9   2.0000     -11.515814      -313.3612
  10   2.0000      -1.627752       -44.2934
  11   2.0000      -1.613720       -43.9116
  12   2.0000      -1.413430       -38.4614
  13   2.0000      -1.357137       -36.9296
  14   2.0000      -1.339522       -36.4502
  15   2.0000      -1.251800       -34.0632
  16   2.0000      -1.208721       -32.8910
  17   2.0000      -1.176699       -32.0196
  18   2.0000      -1.108410       -30.1614
  19   2.0000      -1.099169       -29.9099
  20   2.0000      -1.079244       -29.3677
  21   2.0000      -1.063772       -28.9467
  22   2.0000      -1.020086       -27.7580
  23   2.0000      -0.999616       -27.2009
  24   2.0000      -0.967483       -26.3265
  25   2.0000      -0.923941       -25.1417
  26   2.0000      -0.917975       -24.9794
  27   2.0000      -0.894236       -24.3334
  28   2.0000      -0.893695       -24.3187
  29   2.0000      -0.873341       -23.7648
  30   2.0000      -0.868689       -23.6382
  31   2.0000      -0.838345       -22.8125
  32   2.0000      -0.837668       -22.7941
  33   2.0000      -0.816046       -22.2057
  34   2.0000      -0.795192       -21.6383
  35   2.0000      -0.791323       -21.5330
  36   2.0000      -0.778062       -21.1722
  37   2.0000      -0.767123       -20.8745
  38   2.0000      -0.756795       -20.5934
  39   0.0000      -0.180528        -4.9124
  40   0.0000      -0.153694        -4.1822
  41   0.0000      -0.133069        -3.6210
  42   0.0000      -0.120517        -3.2794
  43   0.0000      -0.104956        -2.8560

MULLIKEN ATOMIC CHARGES
-----------------------
   0 N :   -0.012198
   1 C :   -0.030986
   2 C :   -0.030915
   3 C :   -0.265355
   4 C :   -0.265339
   5 C :   -0.043155
   6 C :   -0.195559
   7 N :    0.018889
   8 C :   -0.267581
   9 C :   -0.267573
  10 H :    0.202254
  11 H :    0.202250
  12 H :    0.192906
  13 H :    0.169143
  14 H :    0.169113
  15 H :    0.192902
  16 H :    0.198882
  17 H :    0.159519
  18 H :    0.167406
  19 H :    0.167429
  20 H :    0.222236
  21 H :    0.222207
  22 H :    0.190550
  23 H :    0.171963
  24 H :    0.190536
  25 H :    0.171931
  26 H :    0.157028
  27 H :    0.211519
Sum of atomic charges:    2.0000000

LOEWDIN ATOMIC CHARGES
----------------------
   0 N :    0.554001
   1 C :    0.034308
   2 C :    0.034381
   3 C :    0.082269
   4 C :    0.082213
   5 C :    0.022535
   6 C :    0.186703
   7 N :    0.725629
   8 C :    0.099533
   9 C :    0.099508
  10 H :    0.004364
  11 H :    0.004389
  12 H :    0.008735
  13 H :   -0.007261
  14 H :   -0.007230
  15 H :    0.008770
  16 H :    0.001293
  17 H :   -0.005205
  18 H :   -0.001562
  19 H :   -0.001616
  20 H :    0.036774
  21 H :    0.036667
  22 H :   -0.001605
  23 H :   -0.005633
  24 H :   -0.001601
  25 H :   -0.005592
  26 H :   -0.013504
  27 H :    0.028737

  Mayer bond orders larger than 0.1
B(  0-N ,  1-C ) :   0.8544 B(  0-N ,  2-C ) :   0.8543 B(  0-N ,  6-C ) :   0.8724
B(  0-N , 26-H ) :   0.9650 B(  1-C ,  3-C ) :   0.9547 B(  1-C ,  9-C ) :   0.9252
B(  1-C , 10-H ) :   0.9686 B(  2-C ,  4-C ) :   0.9547 B(  2-C ,  8-C ) :   0.9252
B(  2-C , 11-H ) :   0.9686 B(  3-C ,  5-C ) :   0.9313 B(  3-C , 12-H ) :   0.9623
B(  3-C , 13-H ) :   0.9761 B(  4-C ,  5-C ) :   0.9313 B(  4-C , 14-H ) :   0.9761
B(  4-C , 15-H ) :   0.9623 B(  5-C ,  7-N ) :   0.8554 B(  5-C , 16-H ) :   0.9525
B(  6-C , 17-H ) :   0.9610 B(  6-C , 18-H ) :   0.9624 B(  6-C , 19-H ) :   0.9624
B(  7-N , 20-H ) :   0.9453 B(  7-N , 21-H ) :   0.9453 B(  7-N , 27-H ) :   0.9485
B(  8-C ,  9-C ) :   0.9113 B(  8-C , 22-H ) :   0.9693 B(  8-C , 23-H ) :   0.9781
B(  9-C , 24-H ) :   0.9693 B(  9-C , 25-H ) :   0.9781

E(0)                                       ...   -421.929354558
E(0)                                       ...   -421.929354558
E(CORR)(strong-pairs)                      ...     -1.856857597
E(CORR)(weak-pairs)                        ...     -0.002428344
E(CORR)(corrected)                         ...     -1.859285940
E(TOT)                                     ...   -423.788640498
E(CCSD(T))                                 ...   -423.864124178
FINAL SINGLE POINT ENERGY      -423.864124178004

DIPOLE MOMENT
-------------
                                X             Y             Z
Electronic contribution:      2.13629      -0.00014      -0.76857
Nuclear contribution   :      0.51697       0.00013      -0.28117
                        -----------------------------------------
Total Dipole Moment    :      2.65326      -0.00001      -1.04975
                        -----------------------------------------
Magnitude (a.u.)       :      2.85338
Magnitude (Debye)      :      7.25270

Rotational constants in cm-1:     0.075435     0.033315     0.032419
Rotational constants in MHz :  2261.481236   998.747079   971.889787

                             ****ORCA TERMINATED NORMALLY****
TOTAL RUN TIME: 0 days 0 hours 49 minutes 9 seconds 95 msec
