                         Program Version 4.1.x  -  STABLE  -
|  1> ! RHF DLPNO-CCSD(T) cc-pVTZ RIJK cc-pVTZ/JK cc-pVTZ/C
|  2> ! KDIIS SOSCF TightSCF TightPNO
|  3>
|  4> %pal nprocs 8 end
|  5>
|  6> %maxcore 8000
|  7>
|  8> %scf maxiter 300
|  9>      shift shift 0.2 erroff 0.1 end
| 10> end
| 11>
| 12> * xyzfile 0 1 3b_aminotropane_1c.xyz
| 13>
| 14>
| 15>                          ****END OF INPUT****

CARTESIAN COORDINATES (ANGSTROEM)
---------------------------------
  C     -1.146730   -1.508730   -0.779900
  C     -0.765650   -0.054270   -1.151280
  N     -1.322820    0.677030   -0.000030
  C     -0.765620   -0.054160    1.151280
  C     -1.146690   -1.508660    0.780040
  C      0.765050    0.140000    1.271580
  C      1.501660   -0.325280    0.000010
  C      0.765050    0.139820   -1.271610
  C     -1.218080    2.127240   -0.000080
  N      2.875240    0.206210   -0.000020
  H     -1.254690    0.279890   -2.073890
  H     -1.254640    0.280070    2.073890
  H      1.143010   -0.409330   -2.145390
  H      0.994350    1.198860   -1.441340
  H      0.994310    1.199070    1.441140
  H      1.143040   -0.409010    2.145420
  H      1.501280   -1.428480    0.000100
  H     -0.191150    2.528740   -0.000160
  H     -1.731650    2.520770   -0.884350
  H     -1.731540    2.520830    0.884220
  H      3.386080   -0.119790    0.818110
  H      3.386140   -0.120050   -0.818020
  H     -2.143310   -1.741400    1.165060
  H     -0.449330   -2.238520    1.204190
  H     -2.143370   -1.741500   -1.164840
  H     -0.449410   -2.238650   -1.204020

 Total Charge           Charge          ....    0
 Multiplicity           Mult            ....    1
 Number of Electrons    NEL             ....   78
 Basis Dimension        Dim             ....  524

ORBITAL ENERGIES
----------------

  NO   OCC          E(Eh)            E(eV)
   0   2.0000     -15.533310      -422.6828
   1   2.0000     -15.531984      -422.6468
   2   2.0000     -11.250279      -306.1357
   3   2.0000     -11.246727      -306.0390
   4   2.0000     -11.246709      -306.0385
   5   2.0000     -11.235643      -305.7374
   6   2.0000     -11.215116      -305.1788
   7   2.0000     -11.214577      -305.1642
   8   2.0000     -11.211128      -305.0703
   9   2.0000     -11.211115      -305.0700
  10   2.0000      -1.236978       -33.6599
  11   2.0000      -1.173407       -31.9300
  12   2.0000      -1.050112       -28.5750
  13   2.0000      -1.016628       -27.6639
  14   2.0000      -0.999319       -27.1928
  15   2.0000      -0.905318       -24.6350
  16   2.0000      -0.874784       -23.8041
  17   2.0000      -0.811015       -22.0688
  18   2.0000      -0.773572       -21.0500
  19   2.0000      -0.714884       -19.4530
  20   2.0000      -0.672997       -18.3132
  21   2.0000      -0.656154       -17.8549
  22   2.0000      -0.640591       -17.4314
  23   2.0000      -0.614432       -16.7196
  24   2.0000      -0.591245       -16.0886
  25   2.0000      -0.581023       -15.8104
  26   2.0000      -0.564426       -15.3588
  27   2.0000      -0.550857       -14.9896
  28   2.0000      -0.533072       -14.5056
  29   2.0000      -0.513890       -13.9837
  30   2.0000      -0.507615       -13.8129
  31   2.0000      -0.494031       -13.4433
  32   2.0000      -0.490043       -13.3347
  33   2.0000      -0.460247       -12.5240
  34   2.0000      -0.445598       -12.1254
  35   2.0000      -0.438063       -11.9203
  36   2.0000      -0.436801       -11.8860
  37   2.0000      -0.384401       -10.4601
  38   2.0000      -0.336724        -9.1627
  39   0.0000       0.135242         3.6801
  40   0.0000       0.145893         3.9699
  41   0.0000       0.160141         4.3577
  42   0.0000       0.161956         4.4071
  43   0.0000       0.183197         4.9850

MULLIKEN ATOMIC CHARGES
-----------------------
   0 C :   -0.224849
   1 C :    0.025273
   2 N :   -0.269249
   3 C :    0.025279
   4 C :   -0.224856
   5 C :   -0.242359
   6 C :    0.045277
   7 C :   -0.242356
   8 C :   -0.203985
   9 N :   -0.390132
  10 H :    0.107610
  11 H :    0.107603
  12 H :    0.106544
  13 H :    0.109913
  14 H :    0.109913
  15 H :    0.106550
  16 H :    0.093127
  17 H :    0.066499
  18 H :    0.099110
  19 H :    0.099112
  20 H :    0.136501
  21 H :    0.136499
  22 H :    0.111426
  23 H :    0.100062
  24 H :    0.111428
  25 H :    0.100061
Sum of atomic charges:    0.0000000

LOEWDIN ATOMIC CHARGES
----------------------
   0 C :    0.077214
   1 C :   -0.068723
   2 N :    0.255157
   3 C :   -0.068731
   4 C :    0.077216
   5 C :    0.059126
   6 C :   -0.081658
   7 C :    0.059124
   8 C :    0.030868
   9 N :    0.322786
  10 H :   -0.029214
  11 H :   -0.029208
  12 H :   -0.029167
  13 H :   -0.026686
  14 H :   -0.026687
  15 H :   -0.029171
  16 H :   -0.040887
  17 H :   -0.048996
  18 H :   -0.030547
  19 H :   -0.030548
  20 H :   -0.106625
  21 H :   -0.106616
  22 H :   -0.029349
  23 H :   -0.034664
  24 H :   -0.029351
  25 H :   -0.034662

  Mayer bond orders larger than 0.1
B(  0-C ,  1-C ) :   0.9527 B(  0-C ,  4-C ) :   0.9434 B(  0-C , 24-H ) :   0.9947
B(  0-C , 25-H ) :   0.9959 B(  1-C ,  2-N ) :   0.9856 B(  1-C ,  7-C ) :   0.9441
B(  1-C , 10-H ) :   1.0002 B(  2-N ,  3-C ) :   0.9856 B(  2-N ,  8-C ) :   0.9878
B(  3-C ,  4-C ) :   0.9527 B(  3-C ,  5-C ) :   0.9441 B(  3-C , 11-H ) :   1.0002
B(  4-C , 22-H ) :   0.9947 B(  4-C , 23-H ) :   0.9959 B(  5-C ,  6-C ) :   0.9352
B(  5-C , 14-H ) :   0.9818 B(  5-C , 15-H ) :   0.9852 B(  6-C ,  7-C ) :   0.9352
B(  6-C ,  9-N ) :   0.9729 B(  6-C , 16-H ) :   0.9879 B(  7-C , 12-H ) :   0.9852
B(  7-C , 13-H ) :   0.9818 B(  8-C , 17-H ) :   0.9624 B(  8-C , 18-H ) :   0.9835
B(  8-C , 19-H ) :   0.9835 B(  9-N , 20-H ) :   0.9874 B(  9-N , 21-H ) :   0.9874

E(0)                                       ...   -421.280573659
E(0)                                       ...   -421.280573659
E(CORR)(strong-pairs)                      ...     -1.866273091
E(CORR)(weak-pairs)                        ...     -0.002404871
E(CORR)(corrected)                         ...     -1.868677963
E(TOT)                                     ...   -423.149251622
E(CCSD(T))                                 ...   -423.227779017
FINAL SINGLE POINT ENERGY      -423.227779016661

DIPOLE MOMENT
-------------
                                X             Y             Z
Electronic contribution:     -0.96100      -0.53326      -0.00004
Nuclear contribution   :      1.26217       0.09057       0.00012
                        -----------------------------------------
Total Dipole Moment    :      0.30116      -0.44269       0.00008
                        -----------------------------------------
Magnitude (a.u.)       :      0.53542
Magnitude (Debye)      :      1.36094

Rotational constants in cm-1:     0.061345     0.041125     0.037240
Rotational constants in MHz :  1839.082036  1232.890791  1116.422594

                             ****ORCA TERMINATED NORMALLY****
TOTAL RUN TIME: 0 days 0 hours 51 minutes 13 seconds 867 msec
