                         Program Version 4.1.x  -  STABLE  -
|  1> ! RHF DLPNO-CCSD(T) cc-pVTZ RIJK cc-pVTZ/JK cc-pVTZ/C
|  2> ! KDIIS SOSCF TightSCF TightPNO
|  3>
|  4> %pal nprocs 8 end
|  5>
|  6> %maxcore 8000
|  7>
|  8> %scf maxiter 300
|  9>      shift shift 0.2 erroff 0.1 end
| 10> end
| 11>
| 12> * xyzfile 0 1 4_methylthiane_ax.xyz
| 13>
| 14>
| 15>                          ****END OF INPUT****

CARTESIAN COORDINATES (ANGSTROEM)
---------------------------------
  C      0.553420   -1.277230    0.661620
  C      1.403790    0.000000    0.473500
  C      0.553420    1.277240    0.661610
  C     -0.645840    1.388950   -0.285330
  S     -1.835780   -0.000010   -0.095710
  C     -0.645820   -1.388950   -0.285330
  C      2.179790   -0.000000   -0.855480
  H      0.186400    1.313180    1.694910
  H      1.194070    2.159020    0.518600
  H     -0.327140    1.446710   -1.331820
  H     -1.221580    2.294370   -0.071520
  H      2.151590    0.000020    1.278530
  H     -0.327120   -1.446700   -1.331820
  H      1.194060   -2.159030    0.518620
  H     -1.221550   -2.294370   -0.071500
  H      0.186400   -1.313160    1.694910
  H      2.822170    0.884930   -0.930640
  H      2.822160   -0.884940   -0.930640
  H      1.520500    0.000010   -1.729830

 Total Charge           Charge          ....    0
 Multiplicity           Mult            ....    1
 Number of Electrons    NEL             ....   64
 Basis Dimension        Dim             ....  382

ORBITAL ENERGIES
----------------

  NO   OCC          E(Eh)            E(eV)
   0   2.0000     -91.934241     -2501.6579
   1   2.0000     -11.252500      -306.1961
   2   2.0000     -11.252492      -306.1959
   3   2.0000     -11.233647      -305.6831
   4   2.0000     -11.227082      -305.5044
   5   2.0000     -11.227048      -305.5035
   6   2.0000     -11.217905      -305.2547
   7   2.0000      -8.935134      -243.1373
   8   2.0000      -6.616326      -180.0394
   9   2.0000      -6.615411      -180.0145
  10   2.0000      -6.614529      -179.9905
  11   2.0000      -1.119206       -30.4551
  12   2.0000      -1.024977       -27.8910
  13   2.0000      -1.016411       -27.6580
  14   2.0000      -0.925722       -25.1902
  15   2.0000      -0.841610       -22.9014
  16   2.0000      -0.818506       -22.2727
  17   2.0000      -0.726972       -19.7819
  18   2.0000      -0.654926       -17.8214
  19   2.0000      -0.624483       -16.9930
  20   2.0000      -0.603705       -16.4276
  21   2.0000      -0.569757       -15.5039
  22   2.0000      -0.561529       -15.2800
  23   2.0000      -0.552418       -15.0321
  24   2.0000      -0.539885       -14.6910
  25   2.0000      -0.515776       -14.0350
  26   2.0000      -0.483678       -13.1615
  27   2.0000      -0.472141       -12.8476
  28   2.0000      -0.461450       -12.5567
  29   2.0000      -0.429370       -11.6837
  30   2.0000      -0.410828       -11.1792
  31   2.0000      -0.329985        -8.9793
  32   0.0000       0.130862         3.5609
  33   0.0000       0.153676         4.1817
  34   0.0000       0.155280         4.2254
  35   0.0000       0.174327         4.7437
  36   0.0000       0.175998         4.7891

MULLIKEN ATOMIC CHARGES
-----------------------
   0 C :   -0.182351
   1 C :   -0.099468
   2 C :   -0.182353
   3 C :   -0.188200
   4 S :   -0.164638
   5 C :   -0.188199
   6 C :   -0.315449
   7 H :    0.108549
   8 H :    0.105610
   9 H :    0.112393
  10 H :    0.126422
  11 H :    0.114338
  12 H :    0.112396
  13 H :    0.105604
  14 H :    0.126422
  15 H :    0.108554
  16 H :    0.104668
  17 H :    0.104667
  18 H :    0.091035
Sum of atomic charges:   -0.0000000

LOEWDIN ATOMIC CHARGES
----------------------
   0 C :    0.041228
   1 C :   -0.017437
   2 C :    0.041232
   3 C :   -0.093800
   4 S :    0.373831
   5 C :   -0.093800
   6 C :    0.111168
   7 H :   -0.022337
   8 H :   -0.023525
   9 H :   -0.044934
  10 H :   -0.035757
  11 H :   -0.019701
  12 H :   -0.044933
  13 H :   -0.023520
  14 H :   -0.035757
  15 H :   -0.022340
  16 H :   -0.027198
  17 H :   -0.027197
  18 H :   -0.035224

  Mayer bond orders larger than 0.1
B(  0-C ,  1-C ) :   0.9520 B(  0-C ,  5-C ) :   0.9377 B(  0-C , 13-H ) :   0.9861
B(  0-C , 15-H ) :   0.9844 B(  1-C ,  2-C ) :   0.9520 B(  1-C ,  6-C ) :   0.9465
B(  1-C , 11-H ) :   0.9930 B(  2-C ,  3-C ) :   0.9377 B(  2-C ,  7-H ) :   0.9844
B(  2-C ,  8-H ) :   0.9861 B(  3-C ,  4-S ) :   0.9865 B(  3-C ,  9-H ) :   0.9771
B(  3-C , 10-H ) :   0.9830 B(  4-S ,  5-C ) :   0.9865 B(  5-C , 12-H ) :   0.9771
B(  5-C , 14-H ) :   0.9830 B(  6-C , 16-H ) :   0.9851 B(  6-C , 17-H ) :   0.9851
B(  6-C , 18-H ) :   0.9788

E(0)                                       ...   -631.825551919
E(0)                                       ...   -631.825551919
E(CORR)(strong-pairs)                      ...     -1.287347615
E(CORR)(weak-pairs)                        ...     -0.001252696
E(CORR)(corrected)                         ...     -1.288600311
E(TOT)                                     ...   -633.114152230
E(CCSD(T))                                 ...   -633.168446049
FINAL SINGLE POINT ENERGY      -633.168446049339

DIPOLE MOMENT
-------------
                                X             Y             Z
Electronic contribution:     -8.54182      -0.00005       0.69235
Nuclear contribution   :      9.34564       0.00005      -0.71281
                        -----------------------------------------
Total Dipole Moment    :      0.80382       0.00000      -0.02046
                        -----------------------------------------
Magnitude (a.u.)       :      0.80408
Magnitude (Debye)      :      2.04381

Rotational constants in cm-1:     0.108505     0.061242     0.048229
Rotational constants in MHz :  3252.911261  1835.990445  1445.881202

                             ****ORCA TERMINATED NORMALLY****
TOTAL RUN TIME: 0 days 0 hours 13 minutes 21 seconds 930 msec
