                         Program Version 4.1.x  -  STABLE  -
|  1> ! RHF DLPNO-CCSD(T) cc-pVTZ RIJK cc-pVTZ/JK cc-pVTZ/C
|  2> ! KDIIS SOSCF TightSCF TightPNO
|  3>
|  4> %pal nprocs 8 end
|  5>
|  6> %maxcore 8000
|  7>
|  8> %scf maxiter 300
|  9>      shift shift 0.2 erroff 0.1 end
| 10> end
| 11>
| 12> * xyzfile 0 1 4_methylpiperidine_ax.xyz
| 13>
| 14>
| 15>                          ****END OF INPUT****

CARTESIAN COORDINATES (ANGSTROEM)
---------------------------------
  C      1.120710    0.000010    0.494480
  C      0.234900    1.261550    0.617100
  C     -0.981340    1.217550   -0.316500
  N     -1.755310   -0.000020   -0.055600
  C     -0.981300   -1.217570   -0.316490
  C      0.234940   -1.261530    0.617110
  C      1.975960    0.000010   -0.784630
  H     -2.611670   -0.000040   -0.601890
  H     -1.624860    2.084370   -0.129730
  H     -0.647310    1.282750   -1.370270
  H     -0.647260   -1.282760   -1.370260
  H     -1.624810   -2.084400   -0.129720
  H     -0.132960    1.341100    1.647770
  H      0.827780    2.162010    0.411120
  H      0.827840   -2.161980    0.411140
  H     -0.132920   -1.341070    1.647780
  H      1.817390    0.000030    1.344130
  H      2.621820    0.885160   -0.820680
  H      2.621830   -0.885140   -0.820640
  H      1.369130   -0.000000   -1.695900

 Total Charge           Charge          ....    0
 Multiplicity           Mult            ....    1
 Number of Electrons    NEL             ....   56
 Basis Dimension        Dim             ....  392

ORBITAL ENERGIES
----------------

  NO   OCC          E(Eh)            E(eV)
   0   2.0000     -15.532741      -422.6674
   1   2.0000     -11.241841      -305.9061
   2   2.0000     -11.241826      -305.9056
   3   2.0000     -11.223169      -305.3980
   4   2.0000     -11.212465      -305.1067
   5   2.0000     -11.212441      -305.1060
   6   2.0000     -11.209543      -305.0272
   7   2.0000      -1.201987       -32.7077
   8   2.0000      -1.070537       -29.1308
   9   2.0000      -1.005898       -27.3719
  10   2.0000      -0.937154       -25.5013
  11   2.0000      -0.837216       -22.7818
  12   2.0000      -0.835820       -22.7438
  13   2.0000      -0.722790       -19.6681
  14   2.0000      -0.678069       -18.4512
  15   2.0000      -0.627390       -17.0721
  16   2.0000      -0.613261       -16.6877
  17   2.0000      -0.575307       -15.6549
  18   2.0000      -0.570303       -15.5187
  19   2.0000      -0.566428       -15.4133
  20   2.0000      -0.526851       -14.3363
  21   2.0000      -0.509551       -13.8656
  22   2.0000      -0.506270       -13.7763
  23   2.0000      -0.482446       -13.1280
  24   2.0000      -0.453246       -12.3335
  25   2.0000      -0.434425       -11.8213
  26   2.0000      -0.431142       -11.7320
  27   2.0000      -0.360382        -9.8065
  28   0.0000       0.135073         3.6755
  29   0.0000       0.157437         4.2841
  30   0.0000       0.166432         4.5289
  31   0.0000       0.170220         4.6319
  32   0.0000       0.199528         5.4294

MULLIKEN ATOMIC CHARGES
-----------------------
   0 C :   -0.089398
   1 C :   -0.182912
   2 C :   -0.096312
   3 N :   -0.292229
   4 C :   -0.096313
   5 C :   -0.182907
   6 C :   -0.311429
   7 H :    0.120419
   8 H :    0.103081
   9 H :    0.067579
  10 H :    0.067578
  11 H :    0.103081
  12 H :    0.098614
  13 H :    0.096144
  14 H :    0.096143
  15 H :    0.098614
  16 H :    0.108334
  17 H :    0.100112
  18 H :    0.100108
  19 H :    0.091694
Sum of atomic charges:    0.0000000

LOEWDIN ATOMIC CHARGES
----------------------
   0 C :   -0.015436
   1 C :    0.061299
   2 C :   -0.013537
   3 N :    0.293162
   4 C :   -0.013534
   5 C :    0.061291
   6 C :    0.109545
   7 H :   -0.113796
   8 H :   -0.030357
   9 H :   -0.045083
  10 H :   -0.045082
  11 H :   -0.030356
  12 H :   -0.023459
  13 H :   -0.027009
  14 H :   -0.027007
  15 H :   -0.023458
  16 H :   -0.023631
  17 H :   -0.028854
  18 H :   -0.028851
  19 H :   -0.035846

  Mayer bond orders larger than 0.1
B(  0-C ,  1-C ) :   0.9531 B(  0-C ,  5-C ) :   0.9531 B(  0-C ,  6-C ) :   0.9476
B(  0-C , 16-H ) :   0.9950 B(  1-C ,  2-C ) :   0.9514 B(  1-C , 12-H ) :   0.9863
B(  1-C , 13-H ) :   0.9928 B(  2-C ,  3-N ) :   0.9817 B(  2-C ,  8-H ) :   0.9912
B(  2-C ,  9-H ) :   0.9811 B(  3-N ,  4-C ) :   0.9817 B(  3-N ,  7-H ) :   0.9936
B(  4-C ,  5-C ) :   0.9514 B(  4-C , 10-H ) :   0.9811 B(  4-C , 11-H ) :   0.9912
B(  5-C , 14-H ) :   0.9928 B(  5-C , 15-H ) :   0.9863 B(  6-C , 17-H ) :   0.9863
B(  6-C , 18-H ) :   0.9863 B(  6-C , 19-H ) :   0.9785

E(0)                                       ...   -289.319921159
E(0)                                       ...   -289.319921159
E(CORR)(strong-pairs)                      ...     -1.316472192
E(CORR)(weak-pairs)                        ...     -0.001353221
E(CORR)(corrected)                         ...     -1.317825413
E(TOT)                                     ...   -290.637746572
E(CCSD(T))                                 ...   -290.690446661
FINAL SINGLE POINT ENERGY      -290.690446661256

DIPOLE MOMENT
-------------
                                X             Y             Z
Electronic contribution:     -2.76871      -0.00003       1.24452
Nuclear contribution   :      2.81410       0.00003      -1.56680
                        -----------------------------------------
Total Dipole Moment    :      0.04539       0.00000      -0.32229
                        -----------------------------------------
Magnitude (a.u.)       :      0.32547
Magnitude (Debye)      :      0.82728

Rotational constants in cm-1:     0.121689     0.083849     0.063949
Rotational constants in MHz :  3648.148585  2513.728870  1917.142957

                             ****ORCA TERMINATED NORMALLY****
TOTAL RUN TIME: 0 days 0 hours 12 minutes 11 seconds 193 msec
