                         Program Version 4.1.x  -  STABLE  -
|  1> ! RHF DLPNO-CCSD(T) cc-pVTZ RIJK cc-pVTZ/JK cc-pVTZ/C
|  2> ! KDIIS SOSCF TightSCF TightPNO
|  3>
|  4> %pal nprocs 8 end
|  5>
|  6> %maxcore 8000
|  7>
|  8> %scf maxiter 300
|  9>      shift shift 0.2 erroff 0.1 end
| 10> end
| 11>
| 12> * xyzfile 0 1 4_methylpiperidine_eq.xyz
| 13>
| 14>
| 15>                          ****END OF INPUT****

CARTESIAN COORDINATES (ANGSTROEM)
---------------------------------
  C     -1.012590    0.000000    0.330530
  C     -0.278490    1.259370   -0.166970
  C      1.212670    1.216810    0.184980
  N      1.815010   -0.000020   -0.364560
  C      1.212640   -1.216830    0.184980
  C     -0.278530   -1.259350   -0.166970
  C     -2.491450    0.000010   -0.072760
  H      2.819410   -0.000030   -0.213770
  H      1.729610    2.084010   -0.240560
  H      1.322130    1.275250    1.286970
  H      1.322090   -1.275270    1.286970
  H      1.729550   -2.084040   -0.240560
  H     -0.381580    1.332420   -1.258190
  H     -0.735430    2.158590    0.266330
  H     -0.735490   -2.158550    0.266350
  H     -0.381610   -1.332430   -1.258190
  H     -0.960670    0.000000    1.431480
  H     -3.009410   -0.885760    0.313450
  H     -3.009400    0.885790    0.313440
  H     -2.599800    0.000010   -1.164530

 Total Charge           Charge          ....    0
 Multiplicity           Mult            ....    1
 Number of Electrons    NEL             ....   56
 Basis Dimension        Dim             ....  392

ORBITAL ENERGIES
----------------

  NO   OCC          E(Eh)            E(eV)
   0   2.0000     -15.533407      -422.6855
   1   2.0000     -11.242632      -305.9276
   2   2.0000     -11.242616      -305.9271
   3   2.0000     -11.222336      -305.3753
   4   2.0000     -11.212342      -305.1033
   5   2.0000     -11.212316      -305.1026
   6   2.0000     -11.209480      -305.0255
   7   2.0000      -1.203240       -32.7418
   8   2.0000      -1.073282       -29.2055
   9   2.0000      -1.006547       -27.3895
  10   2.0000      -0.940191       -25.5839
  11   2.0000      -0.838669       -22.8213
  12   2.0000      -0.819363       -22.2960
  13   2.0000      -0.747714       -20.3463
  14   2.0000      -0.675609       -18.3842
  15   2.0000      -0.607822       -16.5397
  16   2.0000      -0.607351       -16.5269
  17   2.0000      -0.600975       -16.3534
  18   2.0000      -0.576514       -15.6877
  19   2.0000      -0.540254       -14.7011
  20   2.0000      -0.530528       -14.4364
  21   2.0000      -0.519045       -14.1239
  22   2.0000      -0.504399       -13.7254
  23   2.0000      -0.482638       -13.1333
  24   2.0000      -0.454505       -12.3677
  25   2.0000      -0.434942       -11.8354
  26   2.0000      -0.432002       -11.7554
  27   2.0000      -0.362094        -9.8531
  28   0.0000       0.141198         3.8422
  29   0.0000       0.155619         4.2346
  30   0.0000       0.164823         4.4851
  31   0.0000       0.166121         4.5204
  32   0.0000       0.192790         5.2461

MULLIKEN ATOMIC CHARGES
-----------------------
   0 C :   -0.078210
   1 C :   -0.173970
   2 C :   -0.089701
   3 N :   -0.288688
   4 C :   -0.089705
   5 C :   -0.173966
   6 C :   -0.302985
   7 H :    0.119871
   8 H :    0.098478
   9 H :    0.062902
  10 H :    0.062901
  11 H :    0.098480
  12 H :    0.087724
  13 H :    0.098992
  14 H :    0.098990
  15 H :    0.087725
  16 H :    0.096706
  17 H :    0.097278
  18 H :    0.097278
  19 H :    0.089899
Sum of atomic charges:    0.0000000

LOEWDIN ATOMIC CHARGES
----------------------
   0 C :   -0.024039
   1 C :    0.059529
   2 C :   -0.013151
   3 N :    0.293561
   4 C :   -0.013148
   5 C :    0.059521
   6 C :    0.110910
   7 H :   -0.113265
   8 H :   -0.030503
   9 H :   -0.043641
  10 H :   -0.043642
  11 H :   -0.030506
  12 H :   -0.024285
  13 H :   -0.026291
  14 H :   -0.026289
  15 H :   -0.024282
  16 H :   -0.025020
  17 H :   -0.028592
  18 H :   -0.028593
  19 H :   -0.028275

  Mayer bond orders larger than 0.1
B(  0-C ,  1-C ) :   0.9558 B(  0-C ,  5-C ) :   0.9558 B(  0-C ,  6-C ) :   0.9619
B(  0-C , 16-H ) :   0.9778 B(  1-C ,  2-C ) :   0.9613 B(  1-C , 12-H ) :   0.9764
B(  1-C , 13-H ) :   0.9914 B(  2-C ,  3-N ) :   0.9860 B(  2-C ,  8-H ) :   0.9923
B(  2-C ,  9-H ) :   0.9832 B(  3-N ,  4-C ) :   0.9860 B(  3-N ,  7-H ) :   0.9950
B(  4-C ,  5-C ) :   0.9613 B(  4-C , 10-H ) :   0.9832 B(  4-C , 11-H ) :   0.9923
B(  5-C , 14-H ) :   0.9914 B(  5-C , 15-H ) :   0.9764 B(  6-C , 17-H ) :   0.9863
B(  6-C , 18-H ) :   0.9863 B(  6-C , 19-H ) :   0.9811

E(0)                                       ...   -289.324156744
E(0)                                       ...   -289.324156744
E(CORR)(strong-pairs)                      ...     -1.315524376
E(CORR)(weak-pairs)                        ...     -0.001343440
E(CORR)(corrected)                         ...     -1.316867815
E(TOT)                                     ...   -290.641024560
E(CCSD(T))                                 ...   -290.693613673
FINAL SINGLE POINT ENERGY      -290.693613673278

DIPOLE MOMENT
-------------
                                X             Y             Z
Electronic contribution:      3.18018      -0.00001      -0.47978
Nuclear contribution   :     -3.05403       0.00001       0.83462
                        -----------------------------------------
Total Dipole Moment    :      0.12616      -0.00000       0.35484
                        -----------------------------------------
Magnitude (a.u.)       :      0.37660
Magnitude (Debye)      :      0.95724

Rotational constants in cm-1:     0.146055     0.073211     0.053456
Rotational constants in MHz :  4378.628837  2194.798349  1602.579685

                             ****ORCA TERMINATED NORMALLY****
TOTAL RUN TIME: 0 days 0 hours 11 minutes 59 seconds 786 msec
