                         Program Version 4.1.x  -  STABLE  -
|  1> ! RHF DLPNO-CCSD(T) cc-pVTZ RIJK cc-pVTZ/JK cc-pVTZ/C
|  2> ! KDIIS SOSCF TightSCF TightPNO
|  3>
|  4> %pal nprocs 8 end
|  5>
|  6> %maxcore 8000
|  7>
|  8> %scf maxiter 300
|  9>      shift shift 0.2 erroff 0.1 end
| 10> end
| 11>
| 12> * xyzfile 0 1 4_methylthiane_eq.xyz
| 13>
| 14>
| 15>                          ****END OF INPUT****

CARTESIAN COORDINATES (ANGSTROEM)
---------------------------------
  C     -0.582090   -1.276560   -0.163300
  C     -1.304550    0.000000    0.309630
  C     -0.582100    1.276570   -0.163320
  C      0.866110    1.382380    0.323960
  S      1.922720    0.000000   -0.262150
  C      0.866100   -1.382380    0.323950
  C     -2.771710   -0.000010   -0.139640
  H     -0.596980    1.316600   -1.260740
  H     -1.135320    2.155610    0.197000
  H      0.904210    1.419670    1.419820
  H      1.339850    2.294130   -0.052040
  H     -1.289040    0.000020    1.411740
  H      0.904220   -1.419680    1.419800
  H     -1.135280   -2.155600    0.197050
  H      1.339850   -2.294120   -0.052080
  H     -0.596970   -1.316610   -1.260720
  H     -3.300720   -0.885650    0.230570
  H     -3.300740    0.885640    0.230530
  H     -2.847250   -0.000040   -1.234190

 Total Charge           Charge          ....    0
 Multiplicity           Mult            ....    1
 Number of Electrons    NEL             ....   64
 Basis Dimension        Dim             ....  382

ORBITAL ENERGIES
----------------

  NO   OCC          E(Eh)            E(eV)
   0   2.0000     -91.934820     -2501.6736
   1   2.0000     -11.253297      -306.2178
   2   2.0000     -11.253289      -306.2176
   3   2.0000     -11.233057      -305.6670
   4   2.0000     -11.227001      -305.5022
   5   2.0000     -11.226963      -305.5012
   6   2.0000     -11.217189      -305.2352
   7   2.0000      -8.935763      -243.1545
   8   2.0000      -6.616957      -180.0566
   9   2.0000      -6.616044      -180.0317
  10   2.0000      -6.615158      -180.0076
  11   2.0000      -1.120316       -30.4854
  12   2.0000      -1.030259       -28.0348
  13   2.0000      -1.016815       -27.6689
  14   2.0000      -0.919911       -25.0321
  15   2.0000      -0.843095       -22.9418
  16   2.0000      -0.808027       -21.9875
  17   2.0000      -0.752610       -20.4796
  18   2.0000      -0.627981       -17.0882
  19   2.0000      -0.616450       -16.7745
  20   2.0000      -0.614196       -16.7131
  21   2.0000      -0.586950       -15.9717
  22   2.0000      -0.575691       -15.6653
  23   2.0000      -0.539154       -14.6711
  24   2.0000      -0.528665       -14.3857
  25   2.0000      -0.505225       -13.7479
  26   2.0000      -0.488869       -13.3028
  27   2.0000      -0.480653       -13.0792
  28   2.0000      -0.462170       -12.5763
  29   2.0000      -0.430610       -11.7175
  30   2.0000      -0.411933       -11.2093
  31   2.0000      -0.330878        -9.0036
  32   0.0000       0.137465         3.7406
  33   0.0000       0.150744         4.1019
  34   0.0000       0.153984         4.1901
  35   0.0000       0.165253         4.4968
  36   0.0000       0.182019         4.9530

MULLIKEN ATOMIC CHARGES
-----------------------
   0 C :   -0.171025
   1 C :   -0.091061
   2 C :   -0.171031
   3 C :   -0.179597
   4 S :   -0.162878
   5 C :   -0.179595
   6 C :   -0.304093
   7 H :    0.098779
   8 H :    0.105922
   9 H :    0.106878
  10 H :    0.122285
  11 H :    0.100102
  12 H :    0.106883
  13 H :    0.105923
  14 H :    0.122281
  15 H :    0.098778
  16 H :    0.099745
  17 H :    0.099744
  18 H :    0.091961
Sum of atomic charges:    0.0000000

LOEWDIN ATOMIC CHARGES
----------------------
   0 C :    0.039859
   1 C :   -0.023773
   2 C :    0.039868
   3 C :   -0.094596
   4 S :    0.375651
   5 C :   -0.094597
   6 C :    0.113426
   7 H :   -0.023232
   8 H :   -0.022763
   9 H :   -0.042508
  10 H :   -0.035932
  11 H :   -0.024257
  12 H :   -0.042510
  13 H :   -0.022762
  14 H :   -0.035926
  15 H :   -0.023228
  16 H :   -0.027805
  17 H :   -0.027803
  18 H :   -0.027116

  Mayer bond orders larger than 0.1
B(  0-C ,  1-C ) :   0.9520 B(  0-C ,  5-C ) :   0.9467 B(  0-C , 13-H ) :   0.9851
B(  0-C , 15-H ) :   0.9737 B(  1-C ,  2-C ) :   0.9520 B(  1-C ,  6-C ) :   0.9625
B(  1-C , 11-H ) :   0.9780 B(  2-C ,  3-C ) :   0.9467 B(  2-C ,  7-H ) :   0.9737
B(  2-C ,  8-H ) :   0.9851 B(  3-C ,  4-S ) :   0.9887 B(  3-C ,  9-H ) :   0.9791
B(  3-C , 10-H ) :   0.9846 B(  4-S ,  5-C ) :   0.9887 B(  5-C , 12-H ) :   0.9791
B(  5-C , 14-H ) :   0.9846 B(  6-C , 16-H ) :   0.9865 B(  6-C , 17-H ) :   0.9865
B(  6-C , 18-H ) :   0.9795

E(0)                                       ...   -631.829406305
E(0)                                       ...   -631.829406305
E(CORR)(strong-pairs)                      ...     -1.286429300
E(CORR)(weak-pairs)                        ...     -0.001247095
E(CORR)(corrected)                         ...     -1.287676395
E(TOT)                                     ...   -633.117082699
E(CCSD(T))                                 ...   -633.171261445
FINAL SINGLE POINT ENERGY      -633.171261445013

DIPOLE MOMENT
-------------
                                X             Y             Z
Electronic contribution:      9.39385       0.00001      -0.97413
Nuclear contribution   :    -10.10772      -0.00003       1.29774
                        -----------------------------------------
Total Dipole Moment    :     -0.71388      -0.00001       0.32361
                        -----------------------------------------
Magnitude (a.u.)       :      0.78380
Magnitude (Debye)      :      1.99227

Rotational constants in cm-1:     0.127840     0.053564     0.040997
Rotational constants in MHz :  3832.556792  1605.815603  1229.060916

                             ****ORCA TERMINATED NORMALLY****
TOTAL RUN TIME: 0 days 0 hours 10 minutes 26 seconds 878 msec
