                         Program Version 4.1.x  -  STABLE  -
|  1> ! RHF DLPNO-CCSD(T) cc-pVTZ RIJK cc-pVTZ/JK cc-pVTZ/C
|  2> ! KDIIS SOSCF TightSCF TightPNO
|  3>
|  4> %pal nprocs 8 end
|  5>
|  6> %maxcore 8000
|  7>
|  8> %scf maxiter 300
|  9>      shift shift 0.2 erroff 0.1 end
| 10> end
| 11>
| 12> * xyzfile 0 1 4_Me_THP_ax.xyz
| 13>
| 14>
| 15>                          ****END OF INPUT****

CARTESIAN COORDINATES (ANGSTROEM)
---------------------------------
  C      0.995250    1.182860   -0.333140
  O      1.763340    0.000020   -0.115230
  C      0.995270   -1.182860   -0.333140
  C     -0.209710   -1.255930    0.609450
  C     -1.105220   -0.000000    0.506730
  C     -0.209740    1.255940    0.609440
  C     -1.985450   -0.000020   -0.755110
  H     -2.631820   -0.884960   -0.777690
  H     -1.398090    0.000010   -1.679250
  H     -2.631870    0.884890   -0.777680
  H      0.674010   -1.222090   -1.387710
  H      1.678500   -2.019650   -0.162060
  H      0.165820   -1.348920    1.636430
  H     -0.790300   -2.162600    0.393480
  H     -1.783140   -0.000010    1.370810
  H      0.165780    1.348950    1.636420
  H      1.678450    2.019670   -0.162070
  H      0.673960    1.222070   -1.387720
  H     -0.790330    2.162600    0.393450

 Total Charge           Charge          ....    0
 Multiplicity           Mult            ....    1
 Number of Electrons    NEL             ....   56
 Basis Dimension        Dim             ....  378

ORBITAL ENERGIES
----------------

  NO   OCC          E(Eh)            E(eV)
   0   2.0000     -20.544324      -559.0395
   1   2.0000     -11.268577      -306.6336
   2   2.0000     -11.268558      -306.6330
   3   2.0000     -11.231153      -305.6152
   4   2.0000     -11.219802      -305.3063
   5   2.0000     -11.219778      -305.3057
   6   2.0000     -11.216078      -305.2050
   7   2.0000      -1.360958       -37.0335
   8   2.0000      -1.089806       -29.6551
   9   2.0000      -1.020020       -27.7561
  10   2.0000      -0.950177       -25.8556
  11   2.0000      -0.856585       -23.3089
  12   2.0000      -0.850457       -23.1421
  13   2.0000      -0.739711       -20.1286
  14   2.0000      -0.674621       -18.3574
  15   2.0000      -0.632881       -17.2216
  16   2.0000      -0.625010       -17.0074
  17   2.0000      -0.596594       -16.2342
  18   2.0000      -0.595244       -16.1974
  19   2.0000      -0.571617       -15.5545
  20   2.0000      -0.537448       -14.6247
  21   2.0000      -0.521499       -14.1907
  22   2.0000      -0.498505       -13.5650
  23   2.0000      -0.494958       -13.4685
  24   2.0000      -0.472728       -12.8636
  25   2.0000      -0.443907       -12.0793
  26   2.0000      -0.440877       -11.9969
  27   2.0000      -0.398178       -10.8350
  28   0.0000       0.134183         3.6513
  29   0.0000       0.156608         4.2615
  30   0.0000       0.167584         4.5602
  31   0.0000       0.176123         4.7925
  32   0.0000       0.197013         5.3610

MULLIKEN ATOMIC CHARGES
-----------------------
   0 C :    0.020204
   1 O :   -0.393368
   2 C :    0.020196
   3 C :   -0.192745
   4 C :   -0.098257
   5 C :   -0.192746
   6 C :   -0.311753
   7 H :    0.102169
   8 H :    0.091601
   9 H :    0.102167
  10 H :    0.064687
  11 H :    0.108478
  12 H :    0.100857
  13 H :    0.096259
  14 H :    0.111986
  15 H :    0.100856
  16 H :    0.108478
  17 H :    0.064670
  18 H :    0.096261
Sum of atomic charges:    0.0000000

LOEWDIN ATOMIC CHARGES
----------------------
   0 C :   -0.052297
   1 O :    0.238914
   2 C :   -0.052271
   3 C :    0.057357
   4 C :   -0.016148
   5 C :    0.057356
   6 C :    0.110639
   7 H :   -0.027881
   8 H :   -0.034729
   9 H :   -0.027878
  10 H :   -0.039943
  11 H :   -0.028117
  12 H :   -0.022712
  13 H :   -0.024236
  14 H :   -0.023046
  15 H :   -0.022713
  16 H :   -0.028121
  17 H :   -0.039938
  18 H :   -0.024237

  Mayer bond orders larger than 0.1
B(  0-C ,  1-O ) :   0.9842 B(  0-C ,  5-C ) :   0.9509 B(  0-C , 16-H ) :   0.9892
B(  0-C , 17-H ) :   0.9841 B(  1-O ,  2-C ) :   0.9842 B(  2-C ,  3-C ) :   0.9509
B(  2-C , 10-H ) :   0.9841 B(  2-C , 11-H ) :   0.9892 B(  3-C ,  4-C ) :   0.9463
B(  3-C , 12-H ) :   0.9859 B(  3-C , 13-H ) :   0.9861 B(  4-C ,  5-C ) :   0.9463
B(  4-C ,  6-C ) :   0.9493 B(  4-C , 14-H ) :   0.9945 B(  5-C , 15-H ) :   0.9859
B(  5-C , 18-H ) :   0.9861 B(  6-C ,  7-H ) :   0.9859 B(  6-C ,  8-H ) :   0.9780
B(  6-C ,  9-H ) :   0.9859

E(0)                                       ...   -309.156509108
E(0)                                       ...   -309.156509108
E(CORR)(strong-pairs)                      ...     -1.332665047
E(CORR)(weak-pairs)                        ...     -0.001340876
E(CORR)(corrected)                         ...     -1.334005923
E(TOT)                                     ...   -310.490515031
E(CCSD(T))                                 ...   -310.543126262
FINAL SINGLE POINT ENERGY      -310.543126262148

DIPOLE MOMENT
-------------
                                X             Y             Z
Electronic contribution:      4.56937       0.00002       0.90569
Nuclear contribution   :     -5.20946      -0.00006      -0.95069
                        -----------------------------------------
Total Dipole Moment    :     -0.64009      -0.00004      -0.04500
                        -----------------------------------------
Magnitude (a.u.)       :      0.64167
Magnitude (Debye)      :      1.63100

Rotational constants in cm-1:     0.125130     0.083973     0.064625
Rotational constants in MHz :  3751.317239  2517.442590  1937.399493

                             ****ORCA TERMINATED NORMALLY****
TOTAL RUN TIME: 0 days 0 hours 10 minutes 49 seconds 953 msec
