                         Program Version 4.1.x  -  STABLE  -
|  1> ! RHF DLPNO-CCSD(T) cc-pVTZ RIJK cc-pVTZ/JK cc-pVTZ/C
|  2> ! KDIIS SOSCF TightSCF TightPNO
|  3>
|  4> %pal nprocs 8 end
|  5>
|  6> %maxcore 8000
|  7>
|  8> %scf maxiter 300
|  9>      shift shift 0.2 erroff 0.1 end
| 10> end
| 11>
| 12> * xyzfile 0 1 4_Me_THP_eq.xyz
| 13>
| 14>
| 15>                          ****END OF INPUT****

CARTESIAN COORDINATES (ANGSTROEM)
---------------------------------
  C     -1.229340    1.183090    0.176150
  O     -1.835800    0.000010   -0.339030
  C     -1.229370   -1.183070    0.176140
  C      0.261740   -1.253010   -0.163430
  C      1.004240   -0.000010    0.335800
  C      0.261760    1.253010   -0.163430
  C      2.481620   -0.000010   -0.070450
  H      2.999500    0.885930    0.315150
  H      2.588010   -0.000010   -1.162290
  H      2.999490   -0.885960    0.315110
  H     -1.369990   -1.220570    1.271040
  H     -1.780140   -2.018880   -0.264470
  H      0.375020   -1.335550   -1.253260
  H      0.696120   -2.159920    0.278120
  H      0.953430   -0.000010    1.436700
  H      0.375040    1.335550   -1.253250
  H     -1.780120    2.018890   -0.264480
  H     -1.369960    1.220570    1.271030
  H      0.696170    2.159900    0.278120

 Total Charge           Charge          ....    0
 Multiplicity           Mult            ....    1
 Number of Electrons    NEL             ....   56
 Basis Dimension        Dim             ....  378

ORBITAL ENERGIES
----------------

  NO   OCC          E(Eh)            E(eV)
   0   2.0000     -20.545321      -559.0666
   1   2.0000     -11.269424      -306.6566
   2   2.0000     -11.269405      -306.6561
   3   2.0000     -11.230441      -305.5958
   4   2.0000     -11.219745      -305.3048
   5   2.0000     -11.219720      -305.3041
   6   2.0000     -11.215572      -305.1912
   7   2.0000      -1.362428       -37.0735
   8   2.0000      -1.092191       -29.7200
   9   2.0000      -1.020700       -27.7747
  10   2.0000      -0.954745       -25.9799
  11   2.0000      -0.858162       -23.3518
  12   2.0000      -0.832805       -22.6618
  13   2.0000      -0.762508       -20.7489
  14   2.0000      -0.661311       -17.9952
  15   2.0000      -0.632161       -17.2020
  16   2.0000      -0.624146       -16.9839
  17   2.0000      -0.619171       -16.8485
  18   2.0000      -0.593274       -16.1438
  19   2.0000      -0.544146       -14.8070
  20   2.0000      -0.539331       -14.6759
  21   2.0000      -0.520825       -14.1724
  22   2.0000      -0.515178       -14.0187
  23   2.0000      -0.494319       -13.4511
  24   2.0000      -0.467478       -12.7207
  25   2.0000      -0.444604       -12.0983
  26   2.0000      -0.441808       -12.0222
  27   2.0000      -0.401964       -10.9380
  28   0.0000       0.141366         3.8468
  29   0.0000       0.156030         4.2458
  30   0.0000       0.163000         4.4355
  31   0.0000       0.166661         4.5351
  32   0.0000       0.203806         5.5458

MULLIKEN ATOMIC CHARGES
-----------------------
   0 C :    0.028134
   1 O :   -0.392658
   2 C :    0.028141
   3 C :   -0.185178
   4 C :   -0.095490
   5 C :   -0.185181
   6 C :   -0.299673
   7 H :    0.099040
   8 H :    0.090945
   9 H :    0.099045
  10 H :    0.060081
  11 H :    0.105927
  12 H :    0.089609
  13 H :    0.099671
  14 H :    0.102277
  15 H :    0.089615
  16 H :    0.105925
  17 H :    0.060097
  18 H :    0.099674
Sum of atomic charges:    0.0000000

LOEWDIN ATOMIC CHARGES
----------------------
   0 C :   -0.051974
   1 O :    0.240828
   2 C :   -0.051995
   3 C :    0.055551
   4 C :   -0.025795
   5 C :    0.055556
   6 C :    0.111970
   7 H :   -0.027649
   8 H :   -0.027794
   9 H :   -0.027654
  10 H :   -0.038214
  11 H :   -0.028350
  12 H :   -0.023466
  13 H :   -0.023629
  14 H :   -0.023721
  15 H :   -0.023469
  16 H :   -0.028346
  17 H :   -0.038220
  18 H :   -0.023630

  Mayer bond orders larger than 0.1
B(  0-C ,  1-O ) :   0.9870 B(  0-C ,  5-C ) :   0.9585 B(  0-C , 16-H ) :   0.9903
B(  0-C , 17-H ) :   0.9859 B(  1-O ,  2-C ) :   0.9871 B(  2-C ,  3-C ) :   0.9585
B(  2-C , 10-H ) :   0.9859 B(  2-C , 11-H ) :   0.9903 B(  3-C ,  4-C ) :   0.9497
B(  3-C , 12-H ) :   0.9757 B(  3-C , 13-H ) :   0.9846 B(  4-C ,  5-C ) :   0.9497
B(  4-C ,  6-C ) :   0.9607 B(  4-C , 14-H ) :   0.9788 B(  5-C , 15-H ) :   0.9757
B(  5-C , 18-H ) :   0.9846 B(  6-C ,  7-H ) :   0.9859 B(  6-C ,  8-H ) :   0.9805
B(  6-C ,  9-H ) :   0.9859

E(0)                                       ...   -309.160728159
E(0)                                       ...   -309.160728159
E(CORR)(strong-pairs)                      ...     -1.331779070
E(CORR)(weak-pairs)                        ...     -0.001334567
E(CORR)(corrected)                         ...     -1.333113637
E(TOT)                                     ...   -310.493841795
E(CCSD(T))                                 ...   -310.546352633
FINAL SINGLE POINT ENERGY      -310.546352633182

DIPOLE MOMENT
-------------
                                X             Y             Z
Electronic contribution:     -5.08915       0.00008      -0.66896
Nuclear contribution   :      5.62146      -0.00007       1.01032
                        -----------------------------------------
Total Dipole Moment    :      0.53231       0.00001       0.34136
                        -----------------------------------------
Magnitude (a.u.)       :      0.63236
Magnitude (Debye)      :      1.60733

Rotational constants in cm-1:     0.150384     0.073326     0.054016
Rotational constants in MHz :  4508.388242  2198.247567  1619.349859

                             ****ORCA TERMINATED NORMALLY****
TOTAL RUN TIME: 0 days 0 hours 9 minutes 53 seconds 324 msec
