                         Program Version 4.1.x  -  STABLE  -
|  1> ! RHF DLPNO-CCSD(T) cc-pVTZ RIJK cc-pVTZ/JK cc-pVTZ/C
|  2> ! KDIIS SOSCF TightSCF TightPNO
|  3>
|  4> %pal nprocs 16 end
|  5>
|  6> %maxcore 7000
|  7>
|  8> %scf maxiter 300
|  9>      shift shift 0.2 erroff 0.1 end
| 10> end
| 11>
| 12> * xyzfile 0 1 aagtxgtx6060.xyz
| 13>
| 14>
| 15>                          ****END OF INPUT****

CARTESIAN COORDINATES (ANGSTROEM)
---------------------------------
  C      3.570300    0.275800   -0.337500
  C      2.603800    1.027200   -1.249500
  C      2.785800   -0.646400    0.600200
  O      1.803000    0.122800    1.334600
  C      1.559200    1.784200   -0.424300
  C      0.866600    0.845000    0.574500
  O     -0.000000   -0.000000   -0.190800
  C     -0.866600   -0.845000    0.574500
  O     -1.803000   -0.122800    1.334600
  C     -1.559200   -1.784200   -0.424300
  C     -2.785800    0.646400    0.600200
  C     -3.570300   -0.275800   -0.337500
  C     -2.603800   -1.027200   -1.249500
  H      4.123500    1.015000    0.263800
  O      4.473700   -0.527600   -1.085100
  H      2.096000    0.294300   -1.896200
  O      3.375900    1.917600   -2.048200
  H      2.276500   -1.422500    0.015000
  C      3.661100   -1.314200    1.654700
  O      0.634100    2.462600   -1.266600
  H      2.066900    2.565700    0.150200
  H      0.272500    1.407000    1.299800
  H     -0.272500   -1.407000    1.299800
  H     -2.067000   -2.565700    0.150100
  O     -0.634100   -2.462600   -1.266600
  H     -2.276500    1.422500    0.015100
  C     -3.661100    1.314200    1.654700
  O     -4.473700    0.527700   -1.085100
  H     -4.123500   -1.015000    0.263800
  O     -3.375900   -1.917500   -2.048300
  H     -2.096000   -0.294200   -1.896200
  H      4.187700   -0.539500    2.232200
  H      4.404000   -1.939500    1.156200
  O      2.909000   -2.164800    2.508700
  H     -4.187700    0.539500    2.232200
  H     -4.404000    1.939500    1.156200
  O     -2.909000    2.164800    2.508700
  H     -2.256200    1.616800    2.965500
  H      0.010800   -1.811400   -1.581300
  H     -2.765100   -2.488500   -2.537200
  H     -4.877700   -0.037400   -1.759600
  H     -0.010900    1.811400   -1.581300
  H      2.765100    2.488500   -2.537100
  H      4.877700    0.037400   -1.759600
  H      2.256200   -1.616800    2.965400

 Total Charge           Charge          ....    0
 Multiplicity           Mult            ....    1
 Number of Electrons    NEL             ....  182
 Basis Dimension        Dim             ....  998

ORBITAL ENERGIES
----------------

  NO   OCC          E(Eh)            E(eV)
   0   2.0000     -20.604895      -560.6877
   1   2.0000     -20.593883      -560.3881
   2   2.0000     -20.593880      -560.3880
   3   2.0000     -20.584979      -560.1458
   4   2.0000     -20.584978      -560.1457
   5   2.0000     -20.577232      -559.9349
   6   2.0000     -20.577222      -559.9347
   7   2.0000     -20.571819      -559.7876
   8   2.0000     -20.571810      -559.7874
   9   2.0000     -20.558775      -559.4327
  10   2.0000     -20.558771      -559.4326
  11   2.0000     -11.366309      -309.2930
  12   2.0000     -11.366292      -309.2925
  13   2.0000     -11.308890      -307.7305
  14   2.0000     -11.308884      -307.7304
  15   2.0000     -11.302807      -307.5650
  16   2.0000     -11.302800      -307.5648
  17   2.0000     -11.302284      -307.5508
  18   2.0000     -11.302283      -307.5508
  19   2.0000     -11.301715      -307.5353
  20   2.0000     -11.301714      -307.5353
  21   2.0000     -11.283043      -307.0272
  22   2.0000     -11.283042      -307.0272
  23   2.0000      -1.465791       -39.8862
  24   2.0000      -1.420874       -38.6640
  25   2.0000      -1.398290       -38.0494
  26   2.0000      -1.397273       -38.0217
  27   2.0000      -1.388103       -37.7722
  28   2.0000      -1.383233       -37.6397
  29   2.0000      -1.368502       -37.2388
  30   2.0000      -1.363900       -37.1136
  31   2.0000      -1.363886       -37.1132
  32   2.0000      -1.358854       -36.9763
  33   2.0000      -1.352464       -36.8024
  34   2.0000      -1.077019       -29.3072
  35   2.0000      -1.076344       -29.2888
  36   2.0000      -1.071572       -29.1590
  37   2.0000      -1.042329       -28.3632
  38   2.0000      -0.960073       -26.1249
  39   2.0000      -0.938946       -25.5500
  40   2.0000      -0.896592       -24.3975
  41   2.0000      -0.876786       -23.8586
  42   2.0000      -0.857668       -23.3383
  43   2.0000      -0.854928       -23.2638
  44   2.0000      -0.826720       -22.4962
  45   2.0000      -0.792217       -21.5573
  46   2.0000      -0.756494       -20.5852
  47   2.0000      -0.756424       -20.5833
  48   2.0000      -0.739004       -20.1093
  49   2.0000      -0.735663       -20.0184
  50   2.0000      -0.724284       -19.7088
  51   2.0000      -0.711913       -19.3721
  52   2.0000      -0.711500       -19.3609
  53   2.0000      -0.695050       -18.9133
  54   2.0000      -0.682643       -18.5757
  55   2.0000      -0.671868       -18.2825
  56   2.0000      -0.671607       -18.2754
  57   2.0000      -0.663601       -18.0575
  58   2.0000      -0.660443       -17.9716
  59   2.0000      -0.636718       -17.3260
  60   2.0000      -0.636506       -17.3202
  61   2.0000      -0.629470       -17.1288
  62   2.0000      -0.626984       -17.0611
  63   2.0000      -0.625788       -17.0286
  64   2.0000      -0.605140       -16.4667
  65   2.0000      -0.600519       -16.3410
  66   2.0000      -0.593685       -16.1550
  67   2.0000      -0.586439       -15.9578
  68   2.0000      -0.582319       -15.8457
  69   2.0000      -0.576892       -15.6980
  70   2.0000      -0.561467       -15.2783
  71   2.0000      -0.561413       -15.2768
  72   2.0000      -0.550237       -14.9727
  73   2.0000      -0.550145       -14.9702
  74   2.0000      -0.545829       -14.8528
  75   2.0000      -0.540109       -14.6971
  76   2.0000      -0.519471       -14.1355
  77   2.0000      -0.517144       -14.0722
  78   2.0000      -0.512053       -13.9337
  79   2.0000      -0.500542       -13.6204
  80   2.0000      -0.500186       -13.6108
  81   2.0000      -0.492878       -13.4119
  82   2.0000      -0.487581       -13.2678
  83   2.0000      -0.468203       -12.7404
  84   2.0000      -0.465614       -12.6700
  85   2.0000      -0.460367       -12.5272
  86   2.0000      -0.458542       -12.4776
  87   2.0000      -0.444769       -12.1028
  88   2.0000      -0.442847       -12.0505
  89   2.0000      -0.438166       -11.9231
  90   2.0000      -0.435339       -11.8462
  91   0.0000       0.111903         3.0450
  92   0.0000       0.134521         3.6605
  93   0.0000       0.137283         3.7357
  94   0.0000       0.147316         4.0087
  95   0.0000       0.150212         4.0875

MULLIKEN ATOMIC CHARGES
-----------------------
   0 C :    0.110164
   1 C :    0.111457
   2 C :    0.084131
   3 O :   -0.454232
   4 C :    0.076112
   5 C :    0.292770
   6 O :   -0.512174
   7 C :    0.292783
   8 O :   -0.454233
   9 C :    0.076088
  10 C :    0.084115
  11 C :    0.110154
  12 C :    0.111492
  13 H :    0.093586
  14 O :   -0.435452
  15 H :    0.082962
  16 O :   -0.443270
  17 H :    0.108949
  18 C :    0.065121
  19 O :   -0.445250
  20 H :    0.138019
  21 H :    0.138952
  22 H :    0.138953
  23 H :    0.138028
  24 O :   -0.445220
  25 H :    0.108974
  26 C :    0.065124
  27 O :   -0.435481
  28 H :    0.093594
  29 O :   -0.443295
  30 H :    0.082922
  31 H :    0.068704
  32 H :    0.117050
  33 O :   -0.425175
  34 H :    0.068702
  35 H :    0.117053
  36 O :   -0.425195
  37 H :    0.233320
  38 H :    0.245946
  39 H :    0.245327
  40 H :    0.246934
  41 H :    0.245968
  42 H :    0.245301
  43 H :    0.246916
  44 H :    0.233306
Sum of atomic charges:    0.0000000

LOEWDIN ATOMIC CHARGES
----------------------
   0 C :   -0.123204
   1 C :   -0.135388
   2 C :   -0.109686
   3 O :    0.268361
   4 C :   -0.125893
   5 C :   -0.257371
   6 O :    0.243490
   7 C :   -0.257369
   8 O :    0.268362
   9 C :   -0.125884
  10 C :   -0.109679
  11 C :   -0.123165
  12 C :   -0.135423
  13 H :   -0.024518
  14 O :    0.333475
  15 H :   -0.032188
  16 O :    0.325539
  17 H :   -0.027694
  18 C :   -0.038651
  19 O :    0.330566
  20 H :   -0.011661
  21 H :   -0.024456
  22 H :   -0.024456
  23 H :   -0.011665
  24 O :    0.330646
  25 H :   -0.027717
  26 C :   -0.038656
  27 O :    0.333364
  28 H :   -0.024518
  29 O :    0.325472
  30 H :   -0.032163
  31 H :   -0.034216
  32 H :   -0.018332
  33 O :    0.317402
  34 H :   -0.034218
  35 H :   -0.018332
  36 O :    0.317346
  37 H :   -0.190948
  38 H :   -0.190619
  39 H :   -0.176934
  40 H :   -0.175191
  41 H :   -0.190524
  42 H :   -0.177022
  43 H :   -0.175263
  44 H :   -0.191018

  Mayer bond orders larger than 0.1
B(  0-C ,  1-C ) :   0.9715 B(  0-C ,  2-C ) :   0.9451 B(  0-C , 13-H ) :   0.9735
B(  0-C , 14-O ) :   0.9938 B(  1-C ,  4-C ) :   0.9731 B(  1-C , 15-H ) :   0.9662
B(  1-C , 16-O ) :   0.9917 B(  2-C ,  3-O ) :   0.8956 B(  2-C , 17-H ) :   0.9531
B(  2-C , 18-C ) :   0.9826 B(  3-O ,  5-C ) :   1.0214 B(  4-C ,  5-C ) :   0.9705
B(  4-C , 19-O ) :   0.9749 B(  4-C , 20-H ) :   0.9734 B(  5-C ,  6-O ) :   0.9161
B(  5-C , 21-H ) :   0.9788 B(  6-O ,  7-C ) :   0.9161 B(  7-C ,  8-O ) :   1.0214
B(  7-C ,  9-C ) :   0.9705 B(  7-C , 22-H ) :   0.9788 B(  8-O , 10-C ) :   0.8956
B(  9-C , 12-C ) :   0.9731 B(  9-C , 23-H ) :   0.9734 B(  9-C , 24-O ) :   0.9749
B( 10-C , 11-C ) :   0.9451 B( 10-C , 25-H ) :   0.9531 B( 10-C , 26-C ) :   0.9826
B( 11-C , 12-C ) :   0.9715 B( 11-C , 27-O ) :   0.9938 B( 11-C , 28-H ) :   0.9735
B( 12-C , 29-O ) :   0.9917 B( 12-C , 30-H ) :   0.9662 B( 14-O , 43-H ) :   0.9663
B( 16-O , 42-H ) :   0.9682 B( 18-C , 31-H ) :   0.9874 B( 18-C , 32-H ) :   0.9725
B( 18-C , 33-O ) :   1.0022 B( 19-O , 41-H ) :   0.9665 B( 24-O , 38-H ) :   0.9666
B( 26-C , 34-H ) :   0.9874 B( 26-C , 35-H ) :   0.9725 B( 26-C , 36-O ) :   1.0022
B( 27-O , 40-H ) :   0.9663 B( 29-O , 39-H ) :   0.9682 B( 33-O , 44-H ) :   0.9785
B( 36-O , 37-H ) :   0.9785

E(0)                                       ...  -1291.158012816
E(0)                                       ...  -1291.158012816
E(CORR)(strong-pairs)                      ...     -4.706649357
E(CORR)(weak-pairs)                        ...     -0.009040529
E(CORR)(corrected)                         ...     -4.715689886
E(TOT)                                     ...  -1295.873702702
E(CCSD(T))                                 ...  -1296.059739091
FINAL SINGLE POINT ENERGY     -1296.059739091479

DIPOLE MOMENT
-------------
                                X             Y             Z
Electronic contribution:      0.00014      -0.00008      -1.21785
Nuclear contribution   :     -0.00018      -0.00010       0.59525
                        -----------------------------------------
Total Dipole Moment    :     -0.00004      -0.00019      -0.62260
                        -----------------------------------------
Magnitude (a.u.)       :      0.62260
Magnitude (Debye)      :      1.58252

Rotational constants in cm-1:     0.012267     0.005060     0.005022
Rotational constants in MHz :   367.760799   151.683431   150.562271

                             ****ORCA TERMINATED NORMALLY****
TOTAL RUN TIME: 0 days 3 hours 55 minutes 37 seconds 419 msec
