                         Program Version 4.1.x  -  STABLE  -
|  1> ! RHF DLPNO-CCSD(T) cc-pVTZ RIJK cc-pVTZ/JK cc-pVTZ/C
|  2> ! KDIIS SOSCF TightSCF TightPNO
|  3>
|  4> %pal nprocs 16 end
|  5>
|  6> %maxcore 7000
|  7>
|  8> %scf maxiter 300
|  9>      shift shift 0.2 erroff 0.1 end
| 10> end
| 11>
| 12> * xyzfile 0 1 aagtxgtx16080.xyz
| 13>
| 14>
| 15>                          ****END OF INPUT****

CARTESIAN COORDINATES (ANGSTROEM)
---------------------------------
  C      3.311100   -0.534600    0.658400
  C      2.250300   -1.634400    0.627900
  C      2.684200    0.768200    0.157600
  O      2.169400    0.570900   -1.181200
  C      1.648800   -1.762600   -0.775200
  C      1.158800   -0.401000   -1.296200
  O     -0.000500   -0.005300   -0.568400
  C     -1.158700    0.394500   -1.296300
  O     -2.172700   -0.573500   -1.179700
  C     -1.643800    1.758700   -0.777200
  C     -2.688200   -0.767300    0.159400
  C     -3.308800    0.538800    0.659600
  C     -2.243800    1.634300    0.626800
  H      4.137300   -0.823100   -0.010800
  O      3.795700   -0.313400    1.975900
  H      1.456700   -1.367800    1.343600
  O      2.880500   -2.844600    1.035600
  H      1.858200    1.044500    0.825900
  C      3.640600    1.947600    0.067800
  O      0.640700   -2.761200   -0.827300
  H      2.435800   -2.107800   -1.454300
  H      0.921700   -0.464800   -2.363000
  H     -0.921500    0.456100   -2.363200
  H     -2.430800    2.104600   -1.455900
  O     -0.633500    2.754800   -0.832800
  H     -1.863300   -1.047500    0.827600
  C     -3.651000   -1.941600    0.070600
  O     -3.792900    0.320800    1.977800
  H     -4.134500    0.830000   -0.009000
  O     -2.869000    2.847400    1.034000
  H     -1.450300    1.365500    1.341800
  H      4.468200    1.707400   -0.614900
  H      4.053300    2.151100    1.057500
  O      2.957200    3.126300   -0.347700
  H     -4.477600   -1.696800   -0.611800
  H     -4.064400   -2.142200    1.060600
  O     -2.974900   -3.124500   -0.344700
  H     -2.678200   -2.991300   -1.255700
  H      0.174000    2.417500   -0.413000
  H     -2.232800    3.568400    0.918500
  H     -4.036600    1.182700    2.345900
  H     -0.167400   -2.422700   -0.409700
  H      2.246100   -3.567800    0.924000
  H      4.043200   -1.173900    2.344600
  H      2.664300    2.992700   -1.259900

 Total Charge           Charge          ....    0
 Multiplicity           Mult            ....    1
 Number of Electrons    NEL             ....  182
 Basis Dimension        Dim             ....  998

ORBITAL ENERGIES
----------------

  NO   OCC          E(Eh)            E(eV)
   0   2.0000     -20.599637      -560.5446
   1   2.0000     -20.592327      -560.3457
   2   2.0000     -20.592303      -560.3451
   3   2.0000     -20.579334      -559.9922
   4   2.0000     -20.579311      -559.9915
   5   2.0000     -20.573866      -559.8433
   6   2.0000     -20.573792      -559.8413
   7   2.0000     -20.570042      -559.7393
   8   2.0000     -20.569994      -559.7380
   9   2.0000     -20.562709      -559.5398
  10   2.0000     -20.562504      -559.5342
  11   2.0000     -11.368454      -309.3514
  12   2.0000     -11.368431      -309.3507
  13   2.0000     -11.305476      -307.6376
  14   2.0000     -11.305459      -307.6372
  15   2.0000     -11.301586      -307.5318
  16   2.0000     -11.301527      -307.5302
  17   2.0000     -11.300357      -307.4983
  18   2.0000     -11.300297      -307.4967
  19   2.0000     -11.299181      -307.4664
  20   2.0000     -11.299133      -307.4651
  21   2.0000     -11.284851      -307.0764
  22   2.0000     -11.284717      -307.0728
  23   2.0000      -1.464375       -39.8477
  24   2.0000      -1.421325       -38.6762
  25   2.0000      -1.394272       -37.9401
  26   2.0000      -1.394078       -37.9348
  27   2.0000      -1.384222       -37.6666
  28   2.0000      -1.379607       -37.5410
  29   2.0000      -1.369056       -37.2539
  30   2.0000      -1.361326       -37.0436
  31   2.0000      -1.360847       -37.0305
  32   2.0000      -1.360742       -37.0277
  33   2.0000      -1.352881       -36.8138
  34   2.0000      -1.074159       -29.2293
  35   2.0000      -1.073826       -29.2203
  36   2.0000      -1.069792       -29.1105
  37   2.0000      -1.041714       -28.3465
  38   2.0000      -0.957243       -26.0479
  39   2.0000      -0.941826       -25.6284
  40   2.0000      -0.894969       -24.3534
  41   2.0000      -0.880053       -23.9475
  42   2.0000      -0.855654       -23.2835
  43   2.0000      -0.854685       -23.2572
  44   2.0000      -0.825875       -22.4732
  45   2.0000      -0.793432       -21.5904
  46   2.0000      -0.754547       -20.5323
  47   2.0000      -0.753836       -20.5129
  48   2.0000      -0.735659       -20.0183
  49   2.0000      -0.732915       -19.9436
  50   2.0000      -0.723637       -19.6912
  51   2.0000      -0.717911       -19.5354
  52   2.0000      -0.714924       -19.4541
  53   2.0000      -0.687528       -18.7086
  54   2.0000      -0.683254       -18.5923
  55   2.0000      -0.675260       -18.3748
  56   2.0000      -0.668596       -18.1934
  57   2.0000      -0.667371       -18.1601
  58   2.0000      -0.656392       -17.8613
  59   2.0000      -0.638595       -17.3771
  60   2.0000      -0.633556       -17.2399
  61   2.0000      -0.633296       -17.2329
  62   2.0000      -0.619968       -16.8702
  63   2.0000      -0.615099       -16.7377
  64   2.0000      -0.600845       -16.3498
  65   2.0000      -0.598227       -16.2786
  66   2.0000      -0.591294       -16.0899
  67   2.0000      -0.584809       -15.9135
  68   2.0000      -0.577902       -15.7255
  69   2.0000      -0.568613       -15.4727
  70   2.0000      -0.561507       -15.2794
  71   2.0000      -0.560286       -15.2462
  72   2.0000      -0.551012       -14.9938
  73   2.0000      -0.545725       -14.8499
  74   2.0000      -0.543060       -14.7774
  75   2.0000      -0.539330       -14.6759
  76   2.0000      -0.533243       -14.5103
  77   2.0000      -0.512386       -13.9427
  78   2.0000      -0.510793       -13.8994
  79   2.0000      -0.506543       -13.7837
  80   2.0000      -0.493293       -13.4232
  81   2.0000      -0.490490       -13.3469
  82   2.0000      -0.478830       -13.0296
  83   2.0000      -0.467245       -12.7144
  84   2.0000      -0.464623       -12.6430
  85   2.0000      -0.460981       -12.5439
  86   2.0000      -0.460325       -12.5261
  87   2.0000      -0.445140       -12.1129
  88   2.0000      -0.442758       -12.0480
  89   2.0000      -0.437558       -11.9066
  90   2.0000      -0.430799       -11.7226
  91   0.0000       0.124465         3.3869
  92   0.0000       0.135064         3.6753
  93   0.0000       0.140970         3.8360
  94   0.0000       0.148090         4.0297
  95   0.0000       0.151471         4.1217

MULLIKEN ATOMIC CHARGES
-----------------------
   0 C :    0.115304
   1 C :    0.106898
   2 C :    0.065205
   3 O :   -0.437426
   4 C :    0.077804
   5 C :    0.274250
   6 O :   -0.478246
   7 C :    0.274040
   8 O :   -0.437332
   9 C :    0.077776
  10 C :    0.065897
  11 C :    0.115247
  12 C :    0.106789
  13 H :    0.094753
  14 O :   -0.436407
  15 H :    0.098708
  16 O :   -0.443649
  17 H :    0.105819
  18 C :    0.066887
  19 O :   -0.455086
  20 H :    0.135206
  21 H :    0.123005
  22 H :    0.123089
  23 H :    0.135282
  24 O :   -0.455385
  25 H :    0.105678
  26 C :    0.067028
  27 O :   -0.436411
  28 H :    0.094692
  29 O :   -0.443757
  30 H :    0.098858
  31 H :    0.076120
  32 H :    0.118388
  33 O :   -0.431153
  34 H :    0.075751
  35 H :    0.118304
  36 O :   -0.431038
  37 H :    0.236873
  38 H :    0.253695
  39 H :    0.246089
  40 H :    0.247942
  41 H :    0.253461
  42 H :    0.246061
  43 H :    0.247927
  44 H :    0.237062
Sum of atomic charges:    0.0000000

LOEWDIN ATOMIC CHARGES
----------------------
   0 C :   -0.122164
   1 C :   -0.132526
   2 C :   -0.118595
   3 O :    0.263770
   4 C :   -0.133312
   5 C :   -0.261237
   6 O :    0.260024
   7 C :   -0.260960
   8 O :    0.263824
   9 C :   -0.133431
  10 C :   -0.118377
  11 C :   -0.122237
  12 C :   -0.132468
  13 H :   -0.025288
  14 O :    0.332469
  15 H :   -0.027934
  16 O :    0.324872
  17 H :   -0.030264
  18 C :   -0.035328
  19 O :    0.332473
  20 H :   -0.012494
  21 H :   -0.024820
  22 H :   -0.024837
  23 H :   -0.012490
  24 O :    0.332600
  25 H :   -0.030201
  26 C :   -0.035416
  27 O :    0.332450
  28 H :   -0.025285
  29 O :    0.324772
  30 H :   -0.027944
  31 H :   -0.033161
  32 H :   -0.018189
  33 O :    0.315543
  34 H :   -0.033193
  35 H :   -0.018202
  36 O :    0.315451
  37 H :   -0.188613
  38 H :   -0.184535
  39 H :   -0.176124
  40 H :   -0.174782
  41 H :   -0.184439
  42 H :   -0.176064
  43 H :   -0.174864
  44 H :   -0.188475

  Mayer bond orders larger than 0.1
B(  0-C ,  1-C ) :   0.9726 B(  0-C ,  2-C ) :   0.9535 B(  0-C , 13-H ) :   0.9785
B(  0-C , 14-O ) :   1.0016 B(  1-C ,  4-C ) :   0.9729 B(  1-C , 15-H ) :   0.9652
B(  1-C , 16-O ) :   0.9905 B(  2-C ,  3-O ) :   0.8917 B(  2-C , 17-H ) :   0.9549
B(  2-C , 18-C ) :   0.9721 B(  3-O ,  5-C ) :   1.0528 B(  4-C ,  5-C ) :   0.9562
B(  4-C , 19-O ) :   0.9867 B(  4-C , 20-H ) :   0.9753 B(  5-C ,  6-O ) :   0.9267
B(  5-C , 21-H ) :   0.9861 B(  6-O ,  7-C ) :   0.9261 B(  7-C ,  8-O ) :   1.0534
B(  7-C ,  9-C ) :   0.9561 B(  7-C , 22-H ) :   0.9861 B(  8-O , 10-C ) :   0.8917
B(  9-C , 12-C ) :   0.9729 B(  9-C , 23-H ) :   0.9754 B(  9-C , 24-O ) :   0.9870
B( 10-C , 11-C ) :   0.9532 B( 10-C , 25-H ) :   0.9551 B( 10-C , 26-C ) :   0.9722
B( 11-C , 12-C ) :   0.9726 B( 11-C , 27-O ) :   1.0015 B( 11-C , 28-H ) :   0.9785
B( 12-C , 29-O ) :   0.9903 B( 12-C , 30-H ) :   0.9652 B( 14-O , 43-H ) :   0.9659
B( 16-O , 42-H ) :   0.9682 B( 18-C , 31-H ) :   0.9896 B( 18-C , 32-H ) :   0.9750
B( 18-C , 33-O ) :   0.9963 B( 19-O , 41-H ) :   0.9524 B( 24-O , 38-H ) :   0.9519
B( 26-C , 34-H ) :   0.9894 B( 26-C , 35-H ) :   0.9749 B( 26-C , 36-O ) :   0.9966
B( 27-O , 40-H ) :   0.9659 B( 29-O , 39-H ) :   0.9682 B( 33-O , 44-H ) :   0.9744
B( 36-O , 37-H ) :   0.9745

E(0)                                       ...  -1291.157373875
E(0)                                       ...  -1291.157373875
E(CORR)(strong-pairs)                      ...     -4.707163964
E(CORR)(weak-pairs)                        ...     -0.008751613
E(CORR)(corrected)                         ...     -4.715915577
E(TOT)                                     ...  -1295.873289452
E(CCSD(T))                                 ...  -1296.059483589
FINAL SINGLE POINT ENERGY     -1296.059483588590

DIPOLE MOMENT
-------------
                                X             Y             Z
Electronic contribution:      0.00675      -0.01213      -1.49612
Nuclear contribution   :      0.00159       0.01474       0.77938
                        -----------------------------------------
Total Dipole Moment    :      0.00835       0.00261      -0.71674
                        -----------------------------------------
Magnitude (a.u.)       :      0.71680
Magnitude (Debye)      :      1.82196

Rotational constants in cm-1:     0.011064     0.006277     0.004805
Rotational constants in MHz :   331.702775   188.183494   144.039984

                             ****ORCA TERMINATED NORMALLY****
TOTAL RUN TIME: 0 days 3 hours 46 minutes 23 seconds 467 msec
