                         Program Version 4.1.x  -  STABLE  -
|  1> ! RHF DLPNO-CCSD(T) cc-pVTZ RIJK cc-pVTZ/JK cc-pVTZ/C
|  2> ! KDIIS SOSCF TightSCF TightPNO
|  3>
|  4> %pal nprocs 8 end
|  5>
|  6> %maxcore 8000
|  7>
|  8> %scf maxiter 300
|  9>      shift shift 0.2 erroff 0.1 end
| 10> end
| 11>
| 12> * xyzfile 0 1 acetone.xyz
| 13>
| 14>
| 15>                          ****END OF INPUT****

CARTESIAN COORDINATES (ANGSTROEM)
---------------------------------
  C      1.290560   -0.612950    0.000180
  C     -0.000340    0.183860   -0.000540
  O      0.001020    1.394280    0.000030
  C     -1.291310   -0.612010   -0.000110
  H      1.288800   -1.345460   -0.838570
  H      2.175890    0.052370   -0.121560
  H      1.396910   -1.163380    0.962660
  H     -1.387210   -1.183860   -0.950960
  H     -1.300170   -1.325900    0.854460
  H     -2.175850    0.058580    0.096500

 Total Charge           Charge          ....    0
 Multiplicity           Mult            ....    1
 Number of Electrons    NEL             ....   32
 Basis Dimension        Dim             ....  204

ORBITAL ENERGIES
----------------

  NO   OCC          E(Eh)            E(eV)
   0   2.0000     -20.542659      -558.9942
   1   2.0000     -11.332544      -308.3742
   2   2.0000     -11.243076      -305.9396
   3   2.0000     -11.242981      -305.9371
   4   2.0000      -1.385418       -37.6991
   5   2.0000      -1.035651       -28.1815
   6   2.0000      -0.959539       -26.1104
   7   2.0000      -0.738353       -20.0916
   8   2.0000      -0.640026       -17.4160
   9   2.0000      -0.632636       -17.2149
  10   2.0000      -0.620776       -16.8922
  11   2.0000      -0.557816       -15.1790
  12   2.0000      -0.552060       -15.0223
  13   2.0000      -0.529369       -14.4049
  14   2.0000      -0.487570       -13.2675
  15   2.0000      -0.412828       -11.2336
  16   0.0000       0.125772         3.4224
  17   0.0000       0.145324         3.9545
  18   0.0000       0.177406         4.8275
  19   0.0000       0.200949         5.4681
  20   0.0000       0.204585         5.5670

MULLIKEN ATOMIC CHARGES
-----------------------
   0 C :   -0.279261
   1 C :    0.292618
   2 O :   -0.349992
   3 C :   -0.279378
   4 H :    0.090208
   5 H :    0.121336
   6 H :    0.096339
   7 H :    0.096068
   8 H :    0.090767
   9 H :    0.121296
Sum of atomic charges:   -0.0000000

LOEWDIN ATOMIC CHARGES
----------------------
   0 C :    0.095717
   1 C :   -0.263020
   2 O :    0.142239
   3 C :    0.095799
   4 H :   -0.014428
   5 H :   -0.008394
   6 H :   -0.012655
   7 H :   -0.012879
   8 H :   -0.014058
   9 H :   -0.008320

  Mayer bond orders larger than 0.1
B(  0-C ,  1-C ) :   0.9393 B(  0-C ,  4-H ) :   0.9663 B(  0-C ,  5-H ) :   0.9793
B(  0-C ,  6-H ) :   0.9645 B(  1-C ,  2-O ) :   2.1074 B(  1-C ,  3-C ) :   0.9395
B(  3-C ,  7-H ) :   0.9648 B(  3-C ,  8-H ) :   0.9657 B(  3-C ,  9-H ) :   0.9793

E(0)                                       ...   -192.029970249
E(0)                                       ...   -192.029970249
E(CORR)(strong-pairs)                      ...     -0.771913074
E(CORR)(weak-pairs)                        ...     -0.000488977
E(CORR)(corrected)                         ...     -0.772402051
E(TOT)                                     ...   -192.802372300
E(CCSD(T))                                 ...   -192.832860553
FINAL SINGLE POINT ENERGY      -192.832860552707

DIPOLE MOMENT
-------------
                                X             Y             Z
Electronic contribution:      0.00008       3.77940      -0.00187
Nuclear contribution   :     -0.00167      -5.05545       0.00263
                        -----------------------------------------
Total Dipole Moment    :     -0.00159      -1.27605       0.00076
                        -----------------------------------------
Magnitude (a.u.)       :      1.27605
Magnitude (Debye)      :      3.24346

Rotational constants in cm-1:     0.338448     0.280133     0.163102
Rotational constants in MHz : 10146.421389  8398.176017  4889.675223

                             ****ORCA TERMINATED NORMALLY****
TOTAL RUN TIME: 0 days 0 hours 1 minutes 50 seconds 142 msec
