                         Program Version 4.1.x  -  STABLE  -
|  1> ! RHF DLPNO-CCSD(T) cc-pVTZ RIJK cc-pVTZ/JK cc-pVTZ/C
|  2> ! KDIIS SOSCF TightSCF TightPNO
|  3>
|  4> %pal nprocs 8 end
|  5>
|  6> %maxcore 8000
|  7>
|  8> %scf maxiter 300
|  9>      shift shift 0.2 erroff 0.1 end
| 10> end
| 11>
| 12> * xyzfile 0 1 acetaldehyde_dimethylacetal_g_g_.xyz
| 13>
| 14>
| 15>                          ****END OF INPUT****

CARTESIAN COORDINATES (ANGSTROEM)
---------------------------------
  C     -1.381160   -1.311930   -0.384770
  O     -0.704700   -0.690930    0.706830
  C     -0.047210    0.534640    0.420800
  C     -0.958090    1.615760   -0.144300
  O      1.018340    0.368320   -0.491870
  C      2.090400   -0.430690   -0.000570
  H     -1.642540   -2.317140   -0.047380
  H     -2.302910   -0.777460   -0.648210
  H     -0.738150   -1.382080   -1.269780
  H      0.349750    0.833670    1.401780
  H      2.856890   -0.436370   -0.778070
  H      2.511920    0.000490    0.919240
  H      1.767220   -1.457560    0.205330
  H     -1.842910    1.728990    0.488540
  H     -1.272130    1.374730   -1.163500
  H     -0.419880    2.566900   -0.174540

 Total Charge           Charge          ....    0
 Multiplicity           Mult            ....    1
 Number of Electrons    NEL             ....   50
 Basis Dimension        Dim             ....  320

ORBITAL ENERGIES
----------------

  NO   OCC          E(Eh)            E(eV)
   0   2.0000     -20.556035      -559.3582
   1   2.0000     -20.553368      -559.2856
   2   2.0000     -11.329633      -308.2950
   3   2.0000     -11.268685      -306.6365
   4   2.0000     -11.267145      -306.5946
   5   2.0000     -11.216860      -305.2263
   6   2.0000      -1.404515       -38.2188
   7   2.0000      -1.334631       -36.3171
   8   2.0000      -1.021409       -27.7940
   9   2.0000      -0.934880       -25.4394
  10   2.0000      -0.917146       -24.9568
  11   2.0000      -0.799516       -21.7559
  12   2.0000      -0.692534       -18.8448
  13   2.0000      -0.676643       -18.4124
  14   2.0000      -0.652665       -17.7599
  15   2.0000      -0.609843       -16.5947
  16   2.0000      -0.594731       -16.1835
  17   2.0000      -0.578681       -15.7467
  18   2.0000      -0.550191       -14.9714
  19   2.0000      -0.529461       -14.4074
  20   2.0000      -0.516750       -14.0615
  21   2.0000      -0.511337       -13.9142
  22   2.0000      -0.453123       -12.3301
  23   2.0000      -0.438240       -11.9251
  24   2.0000      -0.431826       -11.7506
  25   0.0000       0.142356         3.8737
  26   0.0000       0.161691         4.3998
  27   0.0000       0.171368         4.6632
  28   0.0000       0.195815         5.3284
  29   0.0000       0.214796         5.8449

MULLIKEN ATOMIC CHARGES
-----------------------
   0 C :   -0.100051
   1 O :   -0.390591
   2 C :    0.347269
   3 C :   -0.293655
   4 O :   -0.386335
   5 C :   -0.081736
   6 H :    0.113483
   7 H :    0.076738
   8 H :    0.086907
   9 H :    0.071587
  10 H :    0.103873
  11 H :    0.066109
  12 H :    0.084116
  13 H :    0.098440
  14 H :    0.095878
  15 H :    0.107968
Sum of atomic charges:   -0.0000000

LOEWDIN ATOMIC CHARGES
----------------------
   0 C :    0.011942
   1 O :    0.240115
   2 C :   -0.282315
   3 C :    0.107597
   4 O :    0.247633
   5 C :    0.013850
   6 H :   -0.032387
   7 H :   -0.042671
   8 H :   -0.041015
   9 H :   -0.034102
  10 H :   -0.032941
  11 H :   -0.041220
  12 H :   -0.041038
  13 H :   -0.024528
  14 H :   -0.027091
  15 H :   -0.021829

  Mayer bond orders larger than 0.1
B(  0-C ,  1-O ) :   0.9698 B(  0-C ,  6-H ) :   0.9844 B(  0-C ,  7-H ) :   0.9741
B(  0-C ,  8-H ) :   0.9673 B(  1-O ,  2-C ) :   1.0089 B(  2-C ,  3-C ) :   0.9627
B(  2-C ,  4-O ) :   1.0000 B(  2-C ,  9-H ) :   0.9840 B(  3-C , 13-H ) :   0.9789
B(  3-C , 14-H ) :   0.9753 B(  3-C , 15-H ) :   0.9771 B(  4-O ,  5-C ) :   0.9756
B(  5-C , 10-H ) :   0.9835 B(  5-C , 11-H ) :   0.9773 B(  5-C , 12-H ) :   0.9691

E(0)                                       ...   -307.108481549
E(0)                                       ...   -307.108481549
E(CORR)(strong-pairs)                      ...     -1.226165840
E(CORR)(weak-pairs)                        ...     -0.001048757
E(CORR)(corrected)                         ...     -1.227214598
E(TOT)                                     ...   -308.335696147
E(CCSD(T))                                 ...   -308.381088261
FINAL SINGLE POINT ENERGY      -308.381088261397

DIPOLE MOMENT
-------------
                                X             Y             Z
Electronic contribution:      0.76359      -0.15412       1.03992
Nuclear contribution   :     -0.75834       0.13451      -1.10783
                        -----------------------------------------
Total Dipole Moment    :      0.00525      -0.01961      -0.06790
                        -----------------------------------------
Magnitude (a.u.)       :      0.07087
Magnitude (Debye)      :      0.18015

Rotational constants in cm-1:     0.149298     0.101579     0.072369
Rotational constants in MHz :  4475.830646  3045.254611  2169.575654

                             ****ORCA TERMINATED NORMALLY****
TOTAL RUN TIME: 0 days 0 hours 6 minutes 12 seconds 192 msec
