                         Program Version 4.1.x  -  STABLE  -
|  1> ! RHF DLPNO-CCSD(T) cc-pVTZ RIJK cc-pVTZ/JK cc-pVTZ/C
|  2> ! KDIIS SOSCF TightSCF TightPNO
|  3>
|  4> %pal nprocs 8 end
|  5>
|  6> %maxcore 8000
|  7>
|  8> %scf maxiter 300
|  9>      shift shift 0.2 erroff 0.1 end
| 10> end
| 11>
| 12> * xyzfile 0 1 acetaldehyde_dimethylacetal_g_ecl.xyz
| 13>
| 14>
| 15>                          ****END OF INPUT****

CARTESIAN COORDINATES (ANGSTROEM)
---------------------------------
  C     -2.009070   -0.847510    0.094640
  O     -1.326910    0.372330   -0.180850
  C      0.003010    0.404800    0.244240
  C      0.528260    1.811500    0.007000
  O      0.735550   -0.570550   -0.496410
  C      1.913660   -1.039890    0.136870
  H     -3.043360   -0.700700   -0.222060
  H     -1.568660   -1.683400   -0.458280
  H     -1.990350   -1.072790    1.171670
  H      0.062000    0.130160    1.316710
  H      2.312640   -1.838200   -0.492570
  H      2.676470   -0.253880    0.232260
  H      1.699060   -1.445850    1.137440
  H     -0.045500    2.533760    0.594710
  H      0.432350    2.057820   -1.053970
  H      1.580980    1.885430    0.295640

 Total Charge           Charge          ....    0
 Multiplicity           Mult            ....    1
 Number of Electrons    NEL             ....   50
 Basis Dimension        Dim             ....  320

ORBITAL ENERGIES
----------------

  NO   OCC          E(Eh)            E(eV)
   0   2.0000     -20.554975      -559.3293
   1   2.0000     -20.554231      -559.3091
   2   2.0000     -11.331477      -308.3452
   3   2.0000     -11.275550      -306.8233
   4   2.0000     -11.266376      -306.5737
   5   2.0000     -11.214340      -305.1577
   6   2.0000      -1.407834       -38.3091
   7   2.0000      -1.337995       -36.4087
   8   2.0000      -1.021607       -27.7994
   9   2.0000      -0.930371       -25.3167
  10   2.0000      -0.914424       -24.8827
  11   2.0000      -0.813272       -22.1303
  12   2.0000      -0.688944       -18.7471
  13   2.0000      -0.679119       -18.4798
  14   2.0000      -0.654819       -17.8185
  15   2.0000      -0.614013       -16.7081
  16   2.0000      -0.592089       -16.1115
  17   2.0000      -0.582189       -15.8422
  18   2.0000      -0.549705       -14.9582
  19   2.0000      -0.533573       -14.5192
  20   2.0000      -0.519747       -14.1430
  21   2.0000      -0.487124       -13.2553
  22   2.0000      -0.478866       -13.0306
  23   2.0000      -0.437408       -11.9025
  24   2.0000      -0.421970       -11.4824
  25   0.0000       0.138293         3.7632
  26   0.0000       0.162330         4.4172
  27   0.0000       0.173294         4.7156
  28   0.0000       0.189124         5.1463
  29   0.0000       0.209557         5.7023

MULLIKEN ATOMIC CHARGES
-----------------------
   0 C :   -0.073579
   1 O :   -0.353499
   2 C :    0.326624
   3 C :   -0.256160
   4 O :   -0.379590
   5 C :   -0.069976
   6 H :    0.107617
   7 H :    0.090787
   8 H :    0.052788
   9 H :    0.034031
  10 H :    0.111752
  11 H :    0.067836
  12 H :    0.061089
  13 H :    0.099090
  14 H :    0.102893
  15 H :    0.078296
Sum of atomic charges:    0.0000000

LOEWDIN ATOMIC CHARGES
----------------------
   0 C :    0.017913
   1 O :    0.266561
   2 C :   -0.282937
   3 C :    0.109254
   4 O :    0.245656
   5 C :    0.001145
   6 H :   -0.032150
   7 H :   -0.041136
   8 H :   -0.044275
   9 H :   -0.046645
  10 H :   -0.029973
  11 H :   -0.043144
  12 H :   -0.043400
  13 H :   -0.024150
  14 H :   -0.021641
  15 H :   -0.031079

  Mayer bond orders larger than 0.1
B(  0-C ,  1-O ) :   0.9706 B(  0-C ,  6-H ) :   0.9840 B(  0-C ,  7-H ) :   0.9708
B(  0-C ,  8-H ) :   0.9715 B(  1-O ,  2-C ) :   1.0767 B(  2-C ,  3-C ) :   0.9602
B(  2-C ,  4-O ) :   0.9436 B(  2-C ,  9-H ) :   0.9759 B(  3-C , 13-H ) :   0.9775
B(  3-C , 14-H ) :   0.9772 B(  3-C , 15-H ) :   0.9802 B(  4-O ,  5-C ) :   0.9878
B(  5-C , 10-H ) :   0.9827 B(  5-C , 11-H ) :   0.9683 B(  5-C , 12-H ) :   0.9702

E(0)                                       ...   -307.107544051
E(0)                                       ...   -307.107544051
E(CORR)(strong-pairs)                      ...     -1.225291175
E(CORR)(weak-pairs)                        ...     -0.001044390
E(CORR)(corrected)                         ...     -1.226335566
E(TOT)                                     ...   -308.333879617
E(CCSD(T))                                 ...   -308.379162404
FINAL SINGLE POINT ENERGY      -308.379162404466

DIPOLE MOMENT
-------------
                                X             Y             Z
Electronic contribution:     -1.80680       0.13479      -1.93140
Nuclear contribution   :      2.19471      -0.40717       2.61624
                        -----------------------------------------
Total Dipole Moment    :      0.38791      -0.27238       0.68484
                        -----------------------------------------
Magnitude (a.u.)       :      0.83286
Magnitude (Debye)      :      2.11697

Rotational constants in cm-1:     0.157976     0.094293     0.064463
Rotational constants in MHz :  4735.996399  2826.827697  1932.557912

                             ****ORCA TERMINATED NORMALLY****
TOTAL RUN TIME: 0 days 0 hours 5 minutes 23 seconds 755 msec
