                         Program Version 4.1.x  -  STABLE  -
|  1> ! RHF DLPNO-CCSD(T) cc-pVTZ RIJK cc-pVTZ/JK cc-pVTZ/C
|  2> ! KDIIS SOSCF TightSCF TightPNO
|  3>
|  4> %pal nprocs 8 end
|  5>
|  6> %maxcore 8000
|  7>
|  8> %scf maxiter 300
|  9>      shift shift 0.2 erroff 0.1 end
| 10> end
| 11>
| 12> * xyzfile 0 1 acetone_ecl.xyz
| 13>
| 14>
| 15>                          ****END OF INPUT****

CARTESIAN COORDINATES (ANGSTROEM)
---------------------------------
  C     -1.291130   -0.616520    0.000050
  C      0.001080    0.177990   -0.000380
  O     -0.011480    1.388390    0.000090
  C      1.301280   -0.602770    0.000050
  H     -1.889830   -0.367400    0.905460
  H     -1.889670   -0.368480   -0.905750
  H     -1.095720   -1.712770    0.000690
  H      2.180520    0.081210   -0.000540
  H      1.359670   -1.245270    0.907750
  H      1.359490   -1.246560   -0.906730

 Total Charge           Charge          ....    0
 Multiplicity           Mult            ....    1
 Number of Electrons    NEL             ....   32
 Basis Dimension        Dim             ....  204

ORBITAL ENERGIES
----------------

  NO   OCC          E(Eh)            E(eV)
   0   2.0000     -20.540731      -558.9417
   1   2.0000     -11.332703      -308.3785
   2   2.0000     -11.243179      -305.9425
   3   2.0000     -11.242723      -305.9300
   4   2.0000      -1.384669       -37.6788
   5   2.0000      -1.034577       -28.1523
   6   2.0000      -0.960285       -26.1307
   7   2.0000      -0.737945       -20.0805
   8   2.0000      -0.639004       -17.3882
   9   2.0000      -0.632949       -17.2234
  10   2.0000      -0.617927       -16.8146
  11   2.0000      -0.561272       -15.2730
  12   2.0000      -0.555687       -15.1210
  13   2.0000      -0.527850       -14.3635
  14   2.0000      -0.483405       -13.1541
  15   2.0000      -0.411970       -11.2103
  16   0.0000       0.126250         3.4354
  17   0.0000       0.143550         3.9062
  18   0.0000       0.176279         4.7968
  19   0.0000       0.205935         5.6038
  20   0.0000       0.206115         5.6087

MULLIKEN ATOMIC CHARGES
-----------------------
   0 C :   -0.282264
   1 C :    0.296233
   2 O :   -0.359441
   3 C :   -0.286297
   4 H :    0.116047
   5 H :    0.115990
   6 H :    0.089326
   7 H :    0.120127
   8 H :    0.095162
   9 H :    0.095117
Sum of atomic charges:   -0.0000000

LOEWDIN ATOMIC CHARGES
----------------------
   0 C :    0.096425
   1 C :   -0.261215
   2 O :    0.139158
   3 C :    0.094153
   4 H :   -0.007156
   5 H :   -0.007182
   6 H :   -0.018890
   7 H :   -0.009044
   8 H :   -0.013102
   9 H :   -0.013146

  Mayer bond orders larger than 0.1
B(  0-C ,  1-C ) :   0.9203 B(  0-C ,  4-H ) :   0.9706 B(  0-C ,  5-H ) :   0.9706
B(  0-C ,  6-H ) :   0.9796 B(  1-C ,  2-O ) :   2.1009 B(  1-C ,  3-C ) :   0.9416
B(  3-C ,  7-H ) :   0.9796 B(  3-C ,  8-H ) :   0.9645 B(  3-C ,  9-H ) :   0.9645

E(0)                                       ...   -192.028816439
E(0)                                       ...   -192.028816439
E(CORR)(strong-pairs)                      ...     -0.771982109
E(CORR)(weak-pairs)                        ...     -0.000493290
E(CORR)(corrected)                         ...     -0.772475399
E(TOT)                                     ...   -192.801291838
E(CCSD(T))                                 ...   -192.831809551
FINAL SINGLE POINT ENERGY      -192.831809550523

DIPOLE MOMENT
-------------
                                X             Y             Z
Electronic contribution:     -0.02938       3.73848      -0.00108
Nuclear contribution   :      0.02512      -5.00550       0.00093
                        -----------------------------------------
Total Dipole Moment    :     -0.00425      -1.26702      -0.00015
                        -----------------------------------------
Magnitude (a.u.)       :      1.26703
Magnitude (Debye)      :      3.22053

Rotational constants in cm-1:     0.341037     0.278156     0.163017
Rotational constants in MHz : 10224.043626  8338.900759  4887.137124

                             ****ORCA TERMINATED NORMALLY****
TOTAL RUN TIME: 0 days 0 hours 1 minutes 52 seconds 259 msec
