                         Program Version 4.1.x  -  STABLE  -
|  1> ! RHF DLPNO-CCSD(T) cc-pVTZ RIJK cc-pVTZ/JK cc-pVTZ/C
|  2> ! KDIIS SOSCF TightSCF TightPNO
|  3>
|  4> %pal nprocs 8 end
|  5>
|  6> %maxcore 8000
|  7>
|  8> %scf maxiter 300
|  9>      shift shift 0.2 erroff 0.1 end
| 10> end
| 11>
| 12> * xyzfile 0 1 acrolein_t.xyz
| 13>
| 14>
| 15>                          ****END OF INPUT****

CARTESIAN COORDINATES (ANGSTROEM)
---------------------------------
  C      1.766610    0.140580    0.000050
  C      0.562270   -0.448020   -0.000070
  C     -0.676110    0.352350   -0.000190
  O     -1.797840   -0.123460    0.000130
  H     -0.527390    1.454190    0.000010
  H      0.442800   -1.528800   -0.000100
  H      2.688850   -0.431790    0.000190
  H      1.861810    1.224600    0.000170

 Total Charge           Charge          ....    0
 Multiplicity           Mult            ....    1
 Number of Electrons    NEL             ....   30
 Basis Dimension        Dim             ....  176

ORBITAL ENERGIES
----------------

  NO   OCC          E(Eh)            E(eV)
   0   2.0000     -20.556210      -559.3629
   1   2.0000     -11.336535      -308.4828
   2   2.0000     -11.272045      -306.7279
   3   2.0000     -11.258014      -306.3461
   4   2.0000      -1.386274       -37.7224
   5   2.0000      -1.086585       -29.5675
   6   2.0000      -0.886665       -24.1274
   7   2.0000      -0.785956       -21.3870
   8   2.0000      -0.670672       -18.2499
   9   2.0000      -0.665252       -18.1024
  10   2.0000      -0.603584       -16.4243
  11   2.0000      -0.558370       -15.1940
  12   2.0000      -0.539617       -14.6837
  13   2.0000      -0.431337       -11.7373
  14   2.0000      -0.399466       -10.8700
  15   0.0000       0.078089         2.1249
  16   0.0000       0.145739         3.9658
  17   0.0000       0.159142         4.3305
  18   0.0000       0.197133         5.3643
  19   0.0000       0.204262         5.5583

MULLIKEN ATOMIC CHARGES
-----------------------
   0 C :   -0.278691
   1 C :   -0.143632
   2 C :    0.214289
   3 O :   -0.359705
   4 H :    0.078443
   5 H :    0.180773
   6 H :    0.159365
   7 H :    0.149158
Sum of atomic charges:    0.0000000

LOEWDIN ATOMIC CHARGES
----------------------
   0 C :    0.143741
   1 C :   -0.002039
   2 C :   -0.161062
   3 O :    0.135765
   4 H :   -0.038920
   5 H :   -0.019770
   6 H :   -0.027908
   7 H :   -0.029807

  Mayer bond orders larger than 0.1
B(  0-C ,  1-C ) :   1.7877 B(  0-C ,  6-H ) :   0.9661 B(  0-C ,  7-H ) :   0.9628
B(  1-C ,  2-C ) :   0.9680 B(  1-C ,  5-H ) :   0.9392 B(  2-C ,  3-O ) :   2.0562
B(  2-C ,  4-H ) :   0.9744

E(0)                                       ...   -190.831868453
E(0)                                       ...   -190.831868453
E(CORR)(strong-pairs)                      ...     -0.730841728
E(CORR)(weak-pairs)                        ...     -0.000381625
E(CORR)(corrected)                         ...     -0.731223353
E(TOT)                                     ...   -191.563091806
E(CCSD(T))                                 ...   -191.595195794
FINAL SINGLE POINT ENERGY      -191.595195793821

DIPOLE MOMENT
-------------
                                X             Y             Z
Electronic contribution:     -3.02084      -0.36703      -0.00040
Nuclear contribution   :      4.45975       0.71981       0.00027
                        -----------------------------------------
Total Dipole Moment    :      1.43891       0.35278      -0.00014
                        -----------------------------------------
Magnitude (a.u.)       :      1.48152
Magnitude (Debye)      :      3.76573

Rotational constants in cm-1:     1.596273     0.154093     0.140528
Rotational constants in MHz : 47855.075239  4619.597316  4212.912049

                             ****ORCA TERMINATED NORMALLY****
TOTAL RUN TIME: 0 days 0 hours 3 minutes 27 seconds 821 msec
