                         Program Version 4.1.x  -  STABLE  -
|  1> ! RHF DLPNO-CCSD(T) cc-pVTZ RIJK cc-pVTZ/JK cc-pVTZ/C
|  2> ! KDIIS SOSCF TightSCF TightPNO
|  3>
|  4> %pal nprocs 8 end
|  5>
|  6> %maxcore 8000
|  7>
|  8> %scf maxiter 300
|  9>      shift shift 0.2 erroff 0.1 end
| 10> end
| 11>
| 12> * xyzfile 0 1 acrolein_cis.xyz
| 13>
| 14>
| 15>                          ****END OF INPUT****

CARTESIAN COORDINATES (ANGSTROEM)
---------------------------------
  C      1.478450   -0.466780    0.000000
  C      0.665730    0.598990    0.000080
  C     -0.812980    0.464130   -0.000720
  O     -1.412020   -0.597260    0.000300
  H     -1.376700    1.420260    0.001030
  H      1.061690    1.612530    0.000620
  H      2.558790   -0.361060    0.000340
  H      1.065190   -1.471700   -0.000550

 Total Charge           Charge          ....    0
 Multiplicity           Mult            ....    1
 Number of Electrons    NEL             ....   30
 Basis Dimension        Dim             ....  176

ORBITAL ENERGIES
----------------

  NO   OCC          E(Eh)            E(eV)
   0   2.0000     -20.554032      -559.3036
   1   2.0000     -11.336201      -308.4737
   2   2.0000     -11.265187      -306.5413
   3   2.0000     -11.251527      -306.1696
   4   2.0000      -1.384684       -37.6792
   5   2.0000      -1.074075       -29.2271
   6   2.0000      -0.897205       -24.4142
   7   2.0000      -0.755188       -20.5497
   8   2.0000      -0.700102       -19.0507
   9   2.0000      -0.640591       -17.4314
  10   2.0000      -0.605302       -16.4711
  11   2.0000      -0.547587       -14.9006
  12   2.0000      -0.537859       -14.6359
  13   2.0000      -0.429576       -11.6894
  14   2.0000      -0.392051       -10.6683
  15   0.0000       0.070762         1.9255
  16   0.0000       0.146764         3.9936
  17   0.0000       0.166479         4.5301
  18   0.0000       0.197887         5.3848
  19   0.0000       0.216514         5.8916

MULLIKEN ATOMIC CHARGES
-----------------------
   0 C :   -0.240728
   1 C :   -0.200929
   2 C :    0.211139
   3 O :   -0.360966
   4 H :    0.093806
   5 H :    0.166601
   6 H :    0.157408
   7 H :    0.173669
Sum of atomic charges:   -0.0000000

LOEWDIN ATOMIC CHARGES
----------------------
   0 C :    0.171025
   1 C :   -0.027138
   2 C :   -0.155625
   3 O :    0.132118
   4 H :   -0.040137
   5 H :   -0.029395
   6 H :   -0.028891
   7 H :   -0.021957

  Mayer bond orders larger than 0.1
B(  0-C ,  1-C ) :   1.8139 B(  0-C ,  6-H ) :   0.9729 B(  0-C ,  7-H ) :   0.9508
B(  1-C ,  2-C ) :   0.9443 B(  1-C ,  5-H ) :   0.9535 B(  2-C ,  3-O ) :   2.0681
B(  2-C ,  4-H ) :   0.9851

E(0)                                       ...   -190.828245321
E(0)                                       ...   -190.828245321
E(CORR)(strong-pairs)                      ...     -0.731448478
E(CORR)(weak-pairs)                        ...     -0.000390557
E(CORR)(corrected)                         ...     -0.731839036
E(TOT)                                     ...   -191.560084356
E(CCSD(T))                                 ...   -191.592286730
FINAL SINGLE POINT ENERGY      -191.592286729920

DIPOLE MOMENT
-------------
                                X             Y             Z
Electronic contribution:     -2.34254      -0.43645      -0.00187
Nuclear contribution   :      3.30302       1.19652       0.00145
                        -----------------------------------------
Total Dipole Moment    :      0.96048       0.76007      -0.00041
                        -----------------------------------------
Magnitude (a.u.)       :      1.22484
Magnitude (Debye)      :      3.11329

Rotational constants in cm-1:     0.764550     0.205255     0.161814
Rotational constants in MHz : 22920.640551  6153.403575  4851.061504

                             ****ORCA TERMINATED NORMALLY****
TOTAL RUN TIME: 0 days 0 hours 2 minutes 5 seconds 0 msec
