                         Program Version 4.1.x  -  STABLE  -
|  1> ! RHF DLPNO-CCSD(T) cc-pVTZ RIJK cc-pVTZ/JK cc-pVTZ/C
|  2> ! KDIIS SOSCF TightSCF TightPNO
|  3>
|  4> %pal nprocs 8 end
|  5>
|  6> %maxcore 8000
|  7>
|  8> %scf maxiter 300
|  9>      shift shift 0.2 erroff 0.1 end
| 10> end
| 11>
| 12> * xyzfile 0 1 Adamantyl_CMe2Cl.xyz
| 13>
| 14>
| 15>                          ****END OF INPUT****

CARTESIAN COORDINATES (ANGSTROEM)
---------------------------------
  C      2.136100   -1.591500    0.000300
  C      1.717500   -0.806400   -1.248800
  C      0.193100   -0.611800   -1.253200
  C      1.717600   -0.805800    1.249100
  C      0.193200   -0.611200    1.253500
  C     -0.276400    0.168800   -0.000000
  C      2.409300    0.562900   -1.252300
  C      1.986300    1.341600   -0.000300
  C      0.460000    1.536500   -0.000300
  C      2.409400    0.563400    1.252000
  C     -1.831100    0.394200   -0.000000
  C     -2.360500    1.112700    1.245000
  C     -2.360500    1.112700   -1.245000
  Cl    -2.678700   -1.253600   -0.000000
  H      3.212300   -1.754200    0.000300
  H      1.666600   -2.573100    0.000500
  H      1.998800   -1.360800   -2.141400
  H     -0.296800   -1.577900   -1.293700
  H     -0.083700   -0.076600   -2.156100
  H      1.998900   -1.359800    2.141900
  H     -0.083600   -0.075700    2.156200
  H     -0.296800   -1.577300    1.294500
  H      2.139300    1.117400   -2.149300
  H      3.490500    0.440500   -1.269900
  H      2.459000    2.321400   -0.000500
  H      0.182500    2.118900   -0.873700
  H      0.182600    2.119200    0.872800
  H      3.490600    0.441000    1.269600
  H      2.139400    1.118300    2.148700
  H     -3.439200    1.189200    1.187200
  H     -2.115800    0.589700    2.158200
  H     -1.958300    2.118200    1.299000
  H     -3.439200    1.189300   -1.187100
  H     -1.958200    2.118200   -1.299100
  H     -2.115900    0.589700   -2.158200

 Total Charge           Charge          ....    0
 Multiplicity           Mult            ....    1
 Number of Electrons    NEL             ....  116
 Basis Dimension        Dim             ....  718

ORBITAL ENERGIES
----------------

  NO   OCC          E(Eh)            E(eV)
   0   2.0000    -104.800014     -2851.7534
   1   2.0000     -11.303667      -307.5884
   2   2.0000     -11.243195      -305.9429
   3   2.0000     -11.221394      -305.3497
   4   2.0000     -11.219822      -305.3069
   5   2.0000     -11.219807      -305.3065
   6   2.0000     -11.218049      -305.2586
   7   2.0000     -11.217844      -305.2531
   8   2.0000     -11.217833      -305.2527
   9   2.0000     -11.210820      -305.0619
  10   2.0000     -11.210793      -305.0612
  11   2.0000     -11.209281      -305.0200
  12   2.0000     -11.209267      -305.0197
  13   2.0000     -11.208507      -304.9990
  14   2.0000     -10.525656      -286.4177
  15   2.0000      -7.992234      -217.4797
  16   2.0000      -7.990767      -217.4398
  17   2.0000      -7.990748      -217.4393
  18   2.0000      -1.176865       -32.0241
  19   2.0000      -1.134154       -30.8619
  20   2.0000      -1.042825       -28.3767
  21   2.0000      -1.039509       -28.2865
  22   2.0000      -1.036812       -28.2131
  23   2.0000      -1.000799       -27.2331
  24   2.0000      -0.950025       -25.8515
  25   2.0000      -0.912153       -24.8209
  26   2.0000      -0.908282       -24.7156
  27   2.0000      -0.832507       -22.6537
  28   2.0000      -0.798631       -21.7318
  29   2.0000      -0.797375       -21.6977
  30   2.0000      -0.734279       -19.9808
  31   2.0000      -0.709007       -19.2931
  32   2.0000      -0.638318       -17.3695
  33   2.0000      -0.624528       -16.9943
  34   2.0000      -0.622241       -16.9320
  35   2.0000      -0.621104       -16.9011
  36   2.0000      -0.609399       -16.5826
  37   2.0000      -0.594749       -16.1840
  38   2.0000      -0.590866       -16.0783
  39   2.0000      -0.569398       -15.4941
  40   2.0000      -0.564747       -15.3675
  41   2.0000      -0.559392       -15.2218
  42   2.0000      -0.547885       -14.9087
  43   2.0000      -0.544890       -14.8272
  44   2.0000      -0.528370       -14.3777
  45   2.0000      -0.509651       -13.8683
  46   2.0000      -0.505743       -13.7620
  47   2.0000      -0.486930       -13.2500
  48   2.0000      -0.465937       -12.6788
  49   2.0000      -0.462473       -12.5845
  50   2.0000      -0.460710       -12.5366
  51   2.0000      -0.456601       -12.4247
  52   2.0000      -0.453069       -12.3286
  53   2.0000      -0.428563       -11.6618
  54   2.0000      -0.416657       -11.3378
  55   2.0000      -0.405429       -11.0323
  56   2.0000      -0.402529       -10.9534
  57   2.0000      -0.401208       -10.9174
  58   0.0000       0.124961         3.4004
  59   0.0000       0.152309         4.1445
  60   0.0000       0.156586         4.2609
  61   0.0000       0.159635         4.3439
  62   0.0000       0.172317         4.6890

MULLIKEN ATOMIC CHARGES
-----------------------
   0 C :   -0.232707
   1 C :   -0.088864
   2 C :   -0.244537
   3 C :   -0.088852
   4 C :   -0.244572
   5 C :    0.010739
   6 C :   -0.234177
   7 C :   -0.088328
   8 C :   -0.260418
   9 C :   -0.234180
  10 C :    0.123193
  11 C :   -0.302379
  12 C :   -0.302370
  13 Cl:   -0.272023
  14 H :    0.108559
  15 H :    0.110497
  16 H :    0.114747
  17 H :    0.142008
  18 H :    0.114415
  19 H :    0.114761
  20 H :    0.114429
  21 H :    0.141963
  22 H :    0.106941
  23 H :    0.110103
  24 H :    0.114816
  25 H :    0.122783
  26 H :    0.122847
  27 H :    0.110107
  28 H :    0.106956
  29 H :    0.126577
  30 H :    0.122742
  31 H :    0.102455
  32 H :    0.126568
  33 H :    0.102436
  34 H :    0.122762
Sum of atomic charges:    0.0000000

LOEWDIN ATOMIC CHARGES
----------------------
   0 C :    0.076267
   1 C :    0.006605
   2 C :    0.081687
   3 C :    0.006603
   4 C :    0.081672
   5 C :   -0.076436
   6 C :    0.075409
   7 C :    0.007558
   8 C :    0.084589
   9 C :    0.075408
  10 C :   -0.202097
  11 C :    0.104623
  12 C :    0.104614
  13 Cl:    0.175172
  14 H :   -0.028549
  15 H :   -0.026499
  16 H :   -0.027732
  17 H :   -0.030394
  18 H :   -0.030146
  19 H :   -0.027746
  20 H :   -0.030158
  21 H :   -0.030353
  22 H :   -0.028852
  23 H :   -0.027958
  24 H :   -0.028208
  25 H :   -0.029382
  26 H :   -0.029439
  27 H :   -0.027947
  28 H :   -0.028863
  29 H :   -0.025056
  30 H :   -0.030101
  31 H :   -0.029570
  32 H :   -0.025051
  33 H :   -0.029551
  34 H :   -0.030117

  Mayer bond orders larger than 0.1
B(  0-C ,  1-C ) :   0.9415 B(  0-C ,  3-C ) :   0.9415 B(  0-C , 14-H ) :   1.0001
B(  0-C , 15-H ) :   0.9987 B(  1-C ,  2-C ) :   0.9548 B(  1-C ,  6-C ) :   0.9371
B(  1-C , 16-H ) :   1.0027 B(  2-C ,  5-C ) :   0.9376 B(  2-C , 17-H ) :   0.9841
B(  2-C , 18-H ) :   0.9997 B(  3-C ,  4-C ) :   0.9548 B(  3-C ,  9-C ) :   0.9371
B(  3-C , 19-H ) :   1.0027 B(  4-C ,  5-C ) :   0.9376 B(  4-C , 20-H ) :   0.9997
B(  4-C , 21-H ) :   0.9841 B(  5-C ,  8-C ) :   0.9309 B(  5-C , 10-C ) :   0.9793
B(  6-C ,  7-C ) :   0.9397 B(  6-C , 22-H ) :   1.0005 B(  6-C , 23-H ) :   0.9995
B(  7-C ,  8-C ) :   0.9588 B(  7-C ,  9-C ) :   0.9397 B(  7-C , 24-H ) :   1.0022
B(  8-C , 25-H ) :   0.9955 B(  8-C , 26-H ) :   0.9955 B(  9-C , 27-H ) :   0.9995
B(  9-C , 28-H ) :   1.0005 B( 10-C , 11-C ) :   0.9410 B( 10-C , 12-C ) :   0.9410
B( 10-C , 13-Cl) :   0.9293 B( 11-C , 29-H ) :   0.9815 B( 11-C , 30-H ) :   0.9790
B( 11-C , 31-H ) :   0.9749 B( 12-C , 32-H ) :   0.9815 B( 12-C , 33-H ) :   0.9749
B( 12-C , 34-H ) :   0.9790

E(0)                                       ...   -964.219068738
E(0)                                       ...   -964.219068738
E(CORR)(strong-pairs)                      ...     -2.528037224
E(CORR)(weak-pairs)                        ...     -0.004151367
E(CORR)(corrected)                         ...     -2.532188591
E(TOT)                                     ...   -966.751257330
E(CCSD(T))                                 ...   -966.860986398
FINAL SINGLE POINT ENERGY      -966.860986397503

DIPOLE MOMENT
-------------
                                X             Y             Z
Electronic contribution:    -10.69886      -8.33063       0.00015
Nuclear contribution   :     11.26886       9.12213      -0.00009
                        -----------------------------------------
Total Dipole Moment    :      0.57000       0.79150       0.00007
                        -----------------------------------------
Magnitude (a.u.)       :      0.97539
Magnitude (Debye)      :      2.47924

Rotational constants in cm-1:     0.037515     0.016062     0.015392
Rotational constants in MHz :  1124.656978   481.522817   461.431302

                             ****ORCA TERMINATED NORMALLY****
TOTAL RUN TIME: 0 days 2 hours 51 minutes 39 seconds 263 msec
