                         Program Version 4.1.x  -  STABLE  -
|  1> ! RHF DLPNO-CCSD(T) cc-pVTZ RIJK cc-pVTZ/JK cc-pVTZ/C
|  2> ! KDIIS SOSCF TightSCF TightPNO
|  3>
|  4> %pal nprocs 8 end
|  5>
|  6> %maxcore 8000
|  7>
|  8> %scf maxiter 300
|  9>      shift shift 0.2 erroff 0.1 end
| 10> end
| 11>
| 12> * xyzfile 0 1 Adamantyl_CMe2Cl_ts.xyz
| 13>
| 14>
| 15>                          ****END OF INPUT****

CARTESIAN COORDINATES (ANGSTROEM)
---------------------------------
  C      2.274100    0.878900   -1.258100
  C      1.668100    1.529400   -0.000600
  C      0.136200    1.338700   -0.000600
  C      1.938500   -0.624100   -1.253100
  C      0.405500   -0.814000   -1.253400
  C     -0.259400   -0.166200   -0.000000
  C      2.274000    0.879900    1.257500
  C      1.938300   -0.623000    1.253700
  C      0.405400   -0.812900    1.254000
  C      2.542000   -1.284400    0.000600
  C     -1.859000   -0.400600    0.000000
  C     -2.399400   -1.119600   -1.244800
  C     -2.399300   -1.119700    1.244900
  Cl    -2.793900    1.240300   -0.000000
  H      3.362500    1.024500   -1.277100
  H      1.871300    1.354200   -2.162600
  H      1.882200    2.606100   -0.001000
  H     -0.291900    1.834300   -0.878000
  H     -0.291900    1.834900    0.876600
  H      2.346600   -1.098900   -2.155100
  H      0.184700   -1.887500   -1.289300
  H     -0.004800   -0.371400   -2.167800
  H      1.871200    1.356100    2.161600
  H      3.362400    1.025600    1.276400
  H      2.346400   -1.097100    2.156100
  H     -0.005000   -0.369500    2.167900
  H      0.184500   -1.886400    1.290800
  H      3.634600   -1.172900    0.000600
  H      2.330400   -2.362400    0.001000
  H     -3.486700   -1.201100   -1.174300
  H     -2.162300   -0.590600   -2.169300
  H     -1.989000   -2.132900   -1.307500
  H     -3.486600   -1.201100    1.174400
  H     -1.988900   -2.133000    1.307400
  H     -2.162100   -0.590800    2.169400

 Total Charge           Charge          ....    0
 Multiplicity           Mult            ....    1
 Number of Electrons    NEL             ....  116
 Basis Dimension        Dim             ....  718

ORBITAL ENERGIES
----------------

  NO   OCC          E(Eh)            E(eV)
   0   2.0000    -104.796597     -2851.6604
   1   2.0000     -11.311778      -307.8091
   2   2.0000     -11.251685      -306.1739
   3   2.0000     -11.224656      -305.4384
   4   2.0000     -11.224644      -305.4381
   5   2.0000     -11.224620      -305.4374
   6   2.0000     -11.224606      -305.4371
   7   2.0000     -11.220779      -305.3329
   8   2.0000     -11.220590      -305.3278
   9   2.0000     -11.220574      -305.3273
  10   2.0000     -11.216449      -305.2151
  11   2.0000     -11.214337      -305.1576
  12   2.0000     -11.214300      -305.1566
  13   2.0000     -11.212187      -305.0991
  14   2.0000     -10.521996      -286.3181
  15   2.0000      -7.988508      -217.3784
  16   2.0000      -7.987100      -217.3400
  17   2.0000      -7.987078      -217.3394
  18   2.0000      -1.169811       -31.8322
  19   2.0000      -1.126477       -30.6530
  20   2.0000      -1.038905       -28.2700
  21   2.0000      -1.038150       -28.2495
  22   2.0000      -1.032730       -28.1020
  23   2.0000      -0.998080       -27.1591
  24   2.0000      -0.948081       -25.7986
  25   2.0000      -0.906744       -24.6738
  26   2.0000      -0.904845       -24.6221
  27   2.0000      -0.826245       -22.4833
  28   2.0000      -0.795427       -21.6447
  29   2.0000      -0.794806       -21.6278
  30   2.0000      -0.732609       -19.9353
  31   2.0000      -0.707127       -19.2419
  32   2.0000      -0.634589       -17.2680
  33   2.0000      -0.625883       -17.0311
  34   2.0000      -0.619242       -16.8504
  35   2.0000      -0.619114       -16.8470
  36   2.0000      -0.602749       -16.4016
  37   2.0000      -0.590749       -16.0751
  38   2.0000      -0.589277       -16.0351
  39   2.0000      -0.562830       -15.3154
  40   2.0000      -0.558028       -15.1847
  41   2.0000      -0.553711       -15.0672
  42   2.0000      -0.544387       -14.8135
  43   2.0000      -0.541189       -14.7265
  44   2.0000      -0.533783       -14.5250
  45   2.0000      -0.507818       -13.8184
  46   2.0000      -0.507181       -13.8011
  47   2.0000      -0.484816       -13.1925
  48   2.0000      -0.465975       -12.6798
  49   2.0000      -0.462937       -12.5971
  50   2.0000      -0.459136       -12.4937
  51   2.0000      -0.456142       -12.4123
  52   2.0000      -0.447634       -12.1807
  53   2.0000      -0.419716       -11.4211
  54   2.0000      -0.418606       -11.3908
  55   2.0000      -0.405400       -11.0315
  56   2.0000      -0.401396       -10.9226
  57   2.0000      -0.398890       -10.8543
  58   0.0000       0.121847         3.3156
  59   0.0000       0.149495         4.0680
  60   0.0000       0.155866         4.2413
  61   0.0000       0.158165         4.3039
  62   0.0000       0.167861         4.5677

MULLIKEN ATOMIC CHARGES
-----------------------
   0 C :   -0.226033
   1 C :   -0.095422
   2 C :   -0.205708
   3 C :   -0.091770
   4 C :   -0.229657
   5 C :   -0.033187
   6 C :   -0.226026
   7 C :   -0.091723
   8 C :   -0.229650
   9 C :   -0.226721
  10 C :    0.123153
  11 C :   -0.288842
  12 C :   -0.288843
  13 Cl:   -0.284823
  14 H :    0.105979
  15 H :    0.106061
  16 H :    0.113394
  17 H :    0.132559
  18 H :    0.132501
  19 H :    0.112791
  20 H :    0.114399
  21 H :    0.119887
  22 H :    0.106040
  23 H :    0.105976
  24 H :    0.112770
  25 H :    0.119902
  26 H :    0.114390
  27 H :    0.107098
  28 H :    0.103815
  29 H :    0.124933
  30 H :    0.118879
  31 H :    0.100025
  32 H :    0.124931
  33 H :    0.100024
  34 H :    0.118899
Sum of atomic charges:    0.0000000

LOEWDIN ATOMIC CHARGES
----------------------
   0 C :    0.070302
   1 C :    0.002747
   2 C :    0.058217
   3 C :    0.003987
   4 C :    0.072182
   5 C :   -0.056906
   6 C :    0.070281
   7 C :    0.003949
   8 C :    0.072157
   9 C :    0.069963
  10 C :   -0.158493
  11 C :    0.089233
  12 C :    0.089293
  13 Cl:    0.142036
  14 H :   -0.025664
  15 H :   -0.025055
  16 H :   -0.023756
  17 H :   -0.026663
  18 H :   -0.026607
  19 H :   -0.024559
  20 H :   -0.026708
  21 H :   -0.023759
  22 H :   -0.025026
  23 H :   -0.025655
  24 H :   -0.024537
  25 H :   -0.023777
  26 H :   -0.026665
  27 H :   -0.024988
  28 H :   -0.026395
  29 H :   -0.022593
  30 H :   -0.026017
  31 H :   -0.025940
  32 H :   -0.022602
  33 H :   -0.025954
  34 H :   -0.026030

  Mayer bond orders larger than 0.1
B(  0-C ,  1-C ) :   0.9387 B(  0-C ,  3-C ) :   0.9424 B(  0-C , 14-H ) :   0.9988
B(  0-C , 15-H ) :   0.9987 B(  1-C ,  2-C ) :   0.9494 B(  1-C ,  6-C ) :   0.9387
B(  1-C , 16-H ) :   1.0017 B(  2-C ,  5-C ) :   0.9366 B(  2-C , 17-H ) :   0.9899
B(  2-C , 18-H ) :   0.9899 B(  3-C ,  4-C ) :   0.9571 B(  3-C ,  9-C ) :   0.9409
B(  3-C , 19-H ) :   1.0011 B(  4-C ,  5-C ) :   0.9348 B(  4-C , 20-H ) :   0.9963
B(  4-C , 21-H ) :   0.9953 B(  5-C ,  8-C ) :   0.9348 B(  5-C , 10-C ) :   0.9316
B(  6-C ,  7-C ) :   0.9424 B(  6-C , 22-H ) :   0.9987 B(  6-C , 23-H ) :   0.9989
B(  7-C ,  8-C ) :   0.9571 B(  7-C ,  9-C ) :   0.9409 B(  7-C , 24-H ) :   1.0011
B(  8-C , 25-H ) :   0.9953 B(  8-C , 26-H ) :   0.9963 B(  9-C , 27-H ) :   0.9982
B(  9-C , 28-H ) :   0.9995 B( 10-C , 11-C ) :   0.9439 B( 10-C , 12-C ) :   0.9439
B( 10-C , 13-Cl) :   0.9388 B( 11-C , 29-H ) :   0.9820 B( 11-C , 30-H ) :   0.9784
B( 11-C , 31-H ) :   0.9750 B( 12-C , 32-H ) :   0.9820 B( 12-C , 33-H ) :   0.9750
B( 12-C , 34-H ) :   0.9784

E(0)                                       ...   -964.200447416
E(0)                                       ...   -964.200447416
E(CORR)(strong-pairs)                      ...     -2.530648482
E(CORR)(weak-pairs)                        ...     -0.004379314
E(CORR)(corrected)                         ...     -2.535027797
E(TOT)                                     ...   -966.735475213
E(CCSD(T))                                 ...   -966.846347772
FINAL SINGLE POINT ENERGY      -966.846347772001

DIPOLE MOMENT
-------------
                                X             Y             Z
Electronic contribution:    -11.12935       8.23488      -0.00010
Nuclear contribution   :     11.77985      -9.04572       0.00007
                        -----------------------------------------
Total Dipole Moment    :      0.65049      -0.81084      -0.00003
                        -----------------------------------------
Magnitude (a.u.)       :      1.03952
Magnitude (Debye)      :      2.64225

Rotational constants in cm-1:     0.037383     0.015386     0.014777
Rotational constants in MHz :  1120.726043   461.248490   442.997005

                             ****ORCA TERMINATED NORMALLY****
TOTAL RUN TIME: 0 days 2 hours 42 minutes 39 seconds 851 msec
