                         Program Version 4.1.x  -  STABLE  -
|  1> ! RHF DLPNO-CCSD(T) cc-pVTZ RIJK cc-pVTZ/JK cc-pVTZ/C
|  2> ! KDIIS SOSCF TightSCF TightPNO
|  3>
|  4> %pal nprocs 8 end
|  5>
|  6> %maxcore 8000
|  7>
|  8> %scf maxiter 300
|  9>      shift shift 0.2 erroff 0.1 end
| 10> end
| 11>
| 12> * xyzfile 0 1 aminocyclohexane_eq.xyz
| 13>
| 14>
| 15>                          ****END OF INPUT****

CARTESIAN COORDINATES (ANGSTROEM)
---------------------------------
  C      1.030350    0.000010    0.314220
  C      0.311830   -1.261410   -0.186050
  C     -1.172760   -1.269550    0.213200
  C     -1.892110    0.000000   -0.270280
  C     -1.172730    1.269570    0.213200
  C      0.311860    1.261390   -0.186030
  N      2.419950   -0.000020   -0.163780
  H     -1.663420   -2.162960   -0.191690
  H     -1.256920   -1.337990    1.307700
  H     -2.934040    0.000050    0.073140
  H     -1.924330    0.000010   -1.369490
  H     -1.256940    1.338000    1.307690
  H     -1.663410    2.162950   -0.191730
  H      0.408570   -1.298500   -1.279760
  H      0.814760   -2.156120    0.206330
  H      0.814800    2.156140    0.206300
  H      0.408590    1.298480   -1.279740
  H      0.972950    0.000000    1.419960
  H      2.920560   -0.818850    0.174160
  H      2.920540    0.818890    0.173990

 Total Charge           Charge          ....    0
 Multiplicity           Mult            ....    1
 Number of Electrons    NEL             ....   56
 Basis Dimension        Dim             ....  392

ORBITAL ENERGIES
----------------

  NO   OCC          E(Eh)            E(eV)
   0   2.0000     -15.530769      -422.6137
   1   2.0000     -11.247100      -306.0492
   2   2.0000     -11.216045      -305.2041
   3   2.0000     -11.215903      -305.2002
   4   2.0000     -11.214753      -305.1689
   5   2.0000     -11.212239      -305.1005
   6   2.0000     -11.212225      -305.1002
   7   2.0000      -1.178171       -32.0597
   8   2.0000      -1.088547       -29.6209
   9   2.0000      -0.997926       -27.1549
  10   2.0000      -0.969405       -26.3789
  11   2.0000      -0.830890       -22.6097
  12   2.0000      -0.809382       -22.0244
  13   2.0000      -0.747163       -20.3313
  14   2.0000      -0.639122       -17.3914
  15   2.0000      -0.638449       -17.3731
  16   2.0000      -0.625665       -17.0252
  17   2.0000      -0.600947       -16.3526
  18   2.0000      -0.588096       -16.0029
  19   2.0000      -0.530566       -14.4374
  20   2.0000      -0.521965       -14.2034
  21   2.0000      -0.497849       -13.5472
  22   2.0000      -0.494771       -13.4634
  23   2.0000      -0.478963       -13.0332
  24   2.0000      -0.453870       -12.3504
  25   2.0000      -0.437122       -11.8947
  26   2.0000      -0.424046       -11.5389
  27   2.0000      -0.382675       -10.4131
  28   0.0000       0.139461         3.7949
  29   0.0000       0.151233         4.1153
  30   0.0000       0.161956         4.4070
  31   0.0000       0.164174         4.4674
  32   0.0000       0.196213         5.3392

MULLIKEN ATOMIC CHARGES
-----------------------
   0 C :    0.038924
   1 C :   -0.186326
   2 C :   -0.204399
   3 C :   -0.189311
   4 C :   -0.204406
   5 C :   -0.186319
   6 N :   -0.385657
   7 H :    0.108772
   8 H :    0.084795
   9 H :    0.107499
  10 H :    0.087469
  11 H :    0.084800
  12 H :    0.108773
  13 H :    0.094630
  14 H :    0.097316
  15 H :    0.097307
  16 H :    0.094627
  17 H :    0.078607
  18 H :    0.136451
  19 H :    0.136449
Sum of atomic charges:    0.0000000

LOEWDIN ATOMIC CHARGES
----------------------
   0 C :   -0.088461
   1 C :    0.058008
   2 C :    0.058314
   3 C :    0.057179
   4 C :    0.058328
   5 C :    0.057982
   6 N :    0.325049
   7 H :   -0.027002
   8 H :   -0.028071
   9 H :   -0.027976
  10 H :   -0.026565
  11 H :   -0.028076
  12 H :   -0.027002
  13 H :   -0.023624
  14 H :   -0.029559
  15 H :   -0.029548
  16 H :   -0.023620
  17 H :   -0.040500
  18 H :   -0.107426
  19 H :   -0.107429

  Mayer bond orders larger than 0.1
B(  0-C ,  1-C ) :   0.9438 B(  0-C ,  5-C ) :   0.9438 B(  0-C ,  6-N ) :   0.9852
B(  0-C , 17-H ) :   0.9918 B(  1-C ,  2-C ) :   0.9526 B(  1-C , 13-H ) :   0.9791
B(  1-C , 14-H ) :   0.9942 B(  2-C ,  3-C ) :   0.9470 B(  2-C ,  7-H ) :   0.9944
B(  2-C ,  8-H ) :   0.9833 B(  3-C ,  4-C ) :   0.9470 B(  3-C ,  9-H ) :   0.9955
B(  3-C , 10-H ) :   0.9844 B(  4-C ,  5-C ) :   0.9526 B(  4-C , 11-H ) :   0.9833
B(  4-C , 12-H ) :   0.9944 B(  5-C , 15-H ) :   0.9942 B(  5-C , 16-H ) :   0.9791
B(  6-N , 18-H ) :   0.9856 B(  6-N , 19-H ) :   0.9856

E(0)                                       ...   -289.332479870
E(0)                                       ...   -289.332479870
E(CORR)(strong-pairs)                      ...     -1.316653045
E(CORR)(weak-pairs)                        ...     -0.001343816
E(CORR)(corrected)                         ...     -1.317996861
E(TOT)                                     ...   -290.650476731
E(CCSD(T))                                 ...   -290.703018585
FINAL SINGLE POINT ENERGY      -290.703018585483

DIPOLE MOMENT
-------------
                                X             Y             Z
Electronic contribution:      1.51261      -0.00005      -0.11798
Nuclear contribution   :     -1.51017       0.00010       0.58951
                        -----------------------------------------
Total Dipole Moment    :      0.00244       0.00005       0.47154
                        -----------------------------------------
Magnitude (a.u.)       :      0.47154
Magnitude (Debye)      :      1.19857

Rotational constants in cm-1:     0.141244     0.073489     0.052971
Rotational constants in MHz :  4234.376186  2203.157735  1588.017556

                             ****ORCA TERMINATED NORMALLY****
TOTAL RUN TIME: 0 days 0 hours 13 minutes 22 seconds 910 msec
