                         Program Version 4.1.x  -  STABLE  -
|  1> ! RHF DLPNO-CCSD(T) cc-pVTZ RIJK cc-pVTZ/JK cc-pVTZ/C
|  2> ! KDIIS SOSCF TightSCF TightPNO
|  3>
|  4> %pal nprocs 8 end
|  5>
|  6> %maxcore 8000
|  7>
|  8> %scf maxiter 300
|  9>      shift shift 0.2 erroff 0.1 end
| 10> end
| 11>
| 12> * xyzfile 0 1 aminocyclohexane_ax.xyz
| 13>
| 14>
| 15>                          ****END OF INPUT****

CARTESIAN COORDINATES (ANGSTROEM)
---------------------------------
  C     -1.147750   -0.000040    0.460160
  C     -0.282290   -1.266290    0.609760
  C      0.942060   -1.268380   -0.319600
  C      1.789410    0.000040   -0.128560
  C      0.942000    1.268400   -0.319580
  C     -0.282360    1.266270    0.609770
  N     -1.795020   -0.000020   -0.863410
  H      1.547670   -2.163250   -0.128870
  H      0.605850   -1.324200   -1.361750
  H      2.635500    0.000070   -0.826960
  H      2.220610    0.000030    0.884380
  H      0.605790    1.324220   -1.361720
  H      1.547570    2.163310   -0.128840
  H      0.051420   -1.328840    1.655090
  H     -0.900340   -2.156940    0.430420
  H     -0.900430    2.156900    0.430440
  H      0.051320    1.328800    1.655110
  H     -1.890210   -0.000070    1.277700
  H     -2.387950    0.818650   -0.976450
  H     -2.388100   -0.818590   -0.976410

 Total Charge           Charge          ....    0
 Multiplicity           Mult            ....    1
 Number of Electrons    NEL             ....   56
 Basis Dimension        Dim             ....  392

ORBITAL ENERGIES
----------------

  NO   OCC          E(Eh)            E(eV)
   0   2.0000     -15.531171      -422.6246
   1   2.0000     -11.248528      -306.0880
   2   2.0000     -11.213229      -305.1275
   3   2.0000     -11.213215      -305.1271
   4   2.0000     -11.209692      -305.0312
   5   2.0000     -11.207815      -304.9802
   6   2.0000     -11.207713      -304.9774
   7   2.0000      -1.179099       -32.0849
   8   2.0000      -1.079633       -29.3783
   9   2.0000      -0.994630       -27.0653
  10   2.0000      -0.970717       -26.4146
  11   2.0000      -0.826313       -22.4851
  12   2.0000      -0.812371       -22.1057
  13   2.0000      -0.730774       -19.8854
  14   2.0000      -0.648679       -17.6515
  15   2.0000      -0.647562       -17.6211
  16   2.0000      -0.614619       -16.7246
  17   2.0000      -0.595587       -16.2068
  18   2.0000      -0.572232       -15.5712
  19   2.0000      -0.532386       -14.4870
  20   2.0000      -0.517780       -14.0895
  21   2.0000      -0.502626       -13.6772
  22   2.0000      -0.496899       -13.5213
  23   2.0000      -0.472093       -12.8463
  24   2.0000      -0.454258       -12.3610
  25   2.0000      -0.431664       -11.7462
  26   2.0000      -0.420966       -11.4551
  27   2.0000      -0.378775       -10.3070
  28   0.0000       0.134179         3.6512
  29   0.0000       0.160493         4.3672
  30   0.0000       0.166373         4.5272
  31   0.0000       0.169642         4.6162
  32   0.0000       0.195853         5.3294

MULLIKEN ATOMIC CHARGES
-----------------------
   0 C :   -0.000662
   1 C :   -0.200946
   2 C :   -0.175742
   3 C :   -0.198652
   4 C :   -0.175735
   5 C :   -0.200958
   6 N :   -0.393591
   7 H :    0.105505
   8 H :    0.092407
   9 H :    0.105399
  10 H :    0.080389
  11 H :    0.092410
  12 H :    0.105497
  13 H :    0.093268
  14 H :    0.097859
  15 H :    0.097865
  16 H :    0.093266
  17 H :    0.103680
  18 H :    0.139371
  19 H :    0.139369
Sum of atomic charges:    0.0000000

LOEWDIN ATOMIC CHARGES
----------------------
   0 C :   -0.081148
   1 C :    0.057370
   2 C :    0.059800
   3 C :    0.056730
   4 C :    0.059793
   5 C :    0.057376
   6 N :    0.326117
   7 H :   -0.029679
   8 H :   -0.026810
   9 H :   -0.028305
  10 H :   -0.029468
  11 H :   -0.026813
  12 H :   -0.029672
  13 H :   -0.024657
  14 H :   -0.029636
  15 H :   -0.029641
  16 H :   -0.024659
  17 H :   -0.039511
  18 H :   -0.108593
  19 H :   -0.108592

  Mayer bond orders larger than 0.1
B(  0-C ,  1-C ) :   0.9416 B(  0-C ,  5-C ) :   0.9416 B(  0-C ,  6-N ) :   0.9587
B(  0-C , 17-H ) :   1.0128 B(  1-C ,  2-C ) :   0.9467 B(  1-C , 13-H ) :   0.9913
B(  1-C , 14-H ) :   0.9950 B(  2-C ,  3-C ) :   0.9521 B(  2-C ,  7-H ) :   0.9950
B(  2-C ,  8-H ) :   0.9772 B(  3-C ,  4-C ) :   0.9521 B(  3-C ,  9-H ) :   0.9953
B(  3-C , 10-H ) :   0.9866 B(  4-C ,  5-C ) :   0.9467 B(  4-C , 11-H ) :   0.9772
B(  4-C , 12-H ) :   0.9950 B(  5-C , 15-H ) :   0.9950 B(  5-C , 16-H ) :   0.9913
B(  6-N , 18-H ) :   0.9861 B(  6-N , 19-H ) :   0.9861

E(0)                                       ...   -289.330745104
E(0)                                       ...   -289.330745104
E(CORR)(strong-pairs)                      ...     -1.317351867
E(CORR)(weak-pairs)                        ...     -0.001345938
E(CORR)(corrected)                         ...     -1.318697805
E(TOT)                                     ...   -290.649442909
E(CCSD(T))                                 ...   -290.702073907
FINAL SINGLE POINT ENERGY      -290.702073907283

DIPOLE MOMENT
-------------
                                X             Y             Z
Electronic contribution:     -1.22420      -0.00007      -0.33947
Nuclear contribution   :      0.83581       0.00011       0.60136
                        -----------------------------------------
Total Dipole Moment    :     -0.38838       0.00004       0.26188
                        -----------------------------------------
Magnitude (a.u.)       :      0.46843
Magnitude (Debye)      :      1.19065

Rotational constants in cm-1:     0.117311     0.085922     0.064503
Rotational constants in MHz :  3516.892005  2575.880817  1933.759122

                             ****ORCA TERMINATED NORMALLY****
TOTAL RUN TIME: 0 days 0 hours 12 minutes 21 seconds 679 msec
