                         Program Version 4.1.x  -  STABLE  -
|  1> ! RHF DLPNO-CCSD(T) cc-pVTZ RIJK cc-pVTZ/JK cc-pVTZ/C
|  2> ! KDIIS SOSCF TightSCF TightPNO
|  3>
|  4> %pal nprocs 8 end
|  5>
|  6> %maxcore 8000
|  7>
|  8> %scf maxiter 300
|  9>      shift shift 0.2 erroff 0.1 end
| 10> end
| 11>
| 12> * xyzfile 0 1 bicyclooctyl_CMe2Cl_ts.xyz
| 13>
| 14>
| 15>                          ****END OF INPUT****

CARTESIAN COORDINATES (ANGSTROEM)
---------------------------------
  C     -2.310300   -0.717500   -1.145400
  C     -0.757400   -0.801400   -1.239900
  C     -2.719100    0.219600    0.000400
  C     -0.075100   -0.142200   -0.003300
  C     -1.994700    1.561200   -0.179400
  C     -0.458000    1.366100   -0.025600
  C     -2.267300   -0.405600    1.327900
  C     -0.750600   -0.754600    1.262700
  C      1.517900   -0.397200    0.003200
  C      2.049400   -1.117300   -1.246500
  Cl     2.475900    1.230900    0.001800
  C      2.050400   -1.129500    1.243000
  H     -2.736400   -1.714000   -0.974400
  H     -2.726300   -0.359500   -2.094500
  H     -0.414300   -0.300400   -2.150900
  H     -0.459300   -1.849900   -1.327800
  H     -3.805800    0.368200    0.000200
  H     -2.357900    2.287900    0.557000
  H     -2.230400    1.975500   -1.167600
  H     -0.102800    1.837800    0.895500
  H      0.063100    1.867600   -0.844000
  H     -2.852600   -1.308100    1.541500
  H     -2.463000    0.294400    2.149600
  H     -0.623200   -1.843000    1.254100
  H     -0.257000   -0.388800    2.166400
  H      3.138800   -1.180300   -1.194100
  H      1.656000   -2.138000   -1.295100
  H      1.786300   -0.598700   -2.170000
  H      3.132100   -1.255200    1.153400
  H      1.852500   -0.586300    2.168200
  H      1.599300   -2.124600    1.319000

 Total Charge           Charge          ....    0
 Multiplicity           Mult            ....    1
 Number of Electrons    NEL             ....  102
 Basis Dimension        Dim             ....  630

ORBITAL ENERGIES
----------------

  NO   OCC          E(Eh)            E(eV)
   0   2.0000    -104.796856     -2851.6674
   1   2.0000     -11.312490      -307.8285
   2   2.0000     -11.251618      -306.1721
   3   2.0000     -11.225191      -305.4530
   4   2.0000     -11.224783      -305.4419
   5   2.0000     -11.222687      -305.3848
   6   2.0000     -11.222240      -305.3727
   7   2.0000     -11.221682      -305.3575
   8   2.0000     -11.219245      -305.2912
   9   2.0000     -11.218763      -305.2781
  10   2.0000     -11.215034      -305.1766
  11   2.0000     -11.213801      -305.1430
  12   2.0000     -10.522266      -286.3254
  13   2.0000      -7.988777      -217.3857
  14   2.0000      -7.987368      -217.3473
  15   2.0000      -7.987345      -217.3467
  16   2.0000      -1.160532       -31.5797
  17   2.0000      -1.117809       -30.4171
  18   2.0000      -1.025638       -27.9090
  19   2.0000      -1.002773       -27.2868
  20   2.0000      -1.001594       -27.2548
  21   2.0000      -0.988567       -26.9003
  22   2.0000      -0.943415       -25.6716
  23   2.0000      -0.833902       -22.6916
  24   2.0000      -0.833089       -22.6695
  25   2.0000      -0.826481       -22.4897
  26   2.0000      -0.749994       -20.4084
  27   2.0000      -0.681495       -18.5444
  28   2.0000      -0.655514       -17.8374
  29   2.0000      -0.650912       -17.7122
  30   2.0000      -0.646460       -17.5911
  31   2.0000      -0.604201       -16.4411
  32   2.0000      -0.593868       -16.1600
  33   2.0000      -0.582705       -15.8562
  34   2.0000      -0.562813       -15.3149
  35   2.0000      -0.553801       -15.0697
  36   2.0000      -0.530873       -14.4458
  37   2.0000      -0.528502       -14.3813
  38   2.0000      -0.521864       -14.2007
  39   2.0000      -0.519804       -14.1446
  40   2.0000      -0.513313       -13.9680
  41   2.0000      -0.500867       -13.6293
  42   2.0000      -0.487800       -13.2737
  43   2.0000      -0.483328       -13.1520
  44   2.0000      -0.462463       -12.5843
  45   2.0000      -0.460609       -12.5338
  46   2.0000      -0.424683       -11.5562
  47   2.0000      -0.422518       -11.4973
  48   2.0000      -0.412555       -11.2262
  49   2.0000      -0.404232       -10.9997
  50   2.0000      -0.401090       -10.9142
  51   0.0000       0.123514         3.3610
  52   0.0000       0.150102         4.0845
  53   0.0000       0.157105         4.2750
  54   0.0000       0.162238         4.4147
  55   0.0000       0.171812         4.6753

MULLIKEN ATOMIC CHARGES
-----------------------
   0 C :   -0.220149
   1 C :   -0.237719
   2 C :   -0.062797
   3 C :    0.008474
   4 C :   -0.221800
   5 C :   -0.217529
   6 C :   -0.219934
   7 C :   -0.236454
   8 C :    0.127281
   9 C :   -0.288617
  10 Cl:   -0.284113
  11 C :   -0.287902
  12 H :    0.102066
  13 H :    0.110247
  14 H :    0.114035
  15 H :    0.113452
  16 H :    0.106552
  17 H :    0.108717
  18 H :    0.102554
  19 H :    0.124957
  20 H :    0.132463
  21 H :    0.108229
  22 H :    0.104604
  23 H :    0.107517
  24 H :    0.118331
  25 H :    0.124996
  26 H :    0.099637
  27 H :    0.119045
  28 H :    0.123525
  29 H :    0.119560
  30 H :    0.100770
Sum of atomic charges:   -0.0000000

LOEWDIN ATOMIC CHARGES
----------------------
   0 C :    0.075386
   1 C :    0.073761
   2 C :   -0.014695
   3 C :   -0.066076
   4 C :    0.073214
   5 C :    0.060438
   6 C :    0.075168
   7 C :    0.073660
   8 C :   -0.158488
   9 C :    0.089179
  10 Cl:    0.142060
  11 C :    0.089719
  12 H :   -0.027470
  13 H :   -0.027149
  14 H :   -0.026628
  15 H :   -0.030189
  16 H :   -0.025734
  17 H :   -0.027363
  18 H :   -0.027206
  19 H :   -0.028191
  20 H :   -0.032653
  21 H :   -0.027923
  22 H :   -0.026320
  23 H :   -0.029871
  24 H :   -0.027498
  25 H :   -0.023148
  26 H :   -0.026793
  27 H :   -0.025403
  28 H :   -0.022043
  29 H :   -0.026663
  30 H :   -0.025081

  Mayer bond orders larger than 0.1
B(  0-C ,  1-C ) :   0.9366 B(  0-C ,  2-C ) :   0.9440 B(  0-C , 12-H ) :   0.9995
B(  0-C , 13-H ) :   1.0000 B(  1-C ,  3-C ) :   0.9333 B(  1-C , 14-H ) :   0.9944
B(  1-C , 15-H ) :   0.9950 B(  2-C ,  4-C ) :   0.9409 B(  2-C ,  6-C ) :   0.9439
B(  2-C , 16-H ) :   0.9987 B(  3-C ,  5-C ) :   0.9339 B(  3-C ,  7-C ) :   0.9337
B(  3-C ,  8-C ) :   0.9275 B(  4-C ,  5-C ) :   0.9290 B(  4-C , 17-H ) :   1.0001
B(  4-C , 18-H ) :   0.9988 B(  5-C , 19-H ) :   0.9904 B(  5-C , 20-H ) :   0.9890
B(  6-C ,  7-C ) :   0.9368 B(  6-C , 21-H ) :   1.0006 B(  6-C , 22-H ) :   0.9989
B(  7-C , 23-H ) :   0.9962 B(  7-C , 24-H ) :   0.9932 B(  8-C ,  9-C ) :   0.9431
B(  8-C , 10-Cl) :   0.9399 B(  8-C , 11-C ) :   0.9424 B(  9-C , 25-H ) :   0.9818
B(  9-C , 26-H ) :   0.9752 B(  9-C , 27-H ) :   0.9785 B( 11-C , 28-H ) :   0.9820
B( 11-C , 29-H ) :   0.9785 B( 11-C , 30-H ) :   0.9751

E(0)                                       ...   -887.256430018
E(0)                                       ...   -887.256430018
E(CORR)(strong-pairs)                      ...     -2.194654614
E(CORR)(weak-pairs)                        ...     -0.003376581
E(CORR)(corrected)                         ...     -2.198031195
E(TOT)                                     ...   -889.454461214
E(CCSD(T))                                 ...   -889.548975163
FINAL SINGLE POINT ENERGY      -889.548975162880

DIPOLE MOMENT
-------------
                                X             Y             Z
Electronic contribution:     10.98918       8.18810       0.01529
Nuclear contribution   :    -11.63703      -9.00367      -0.01644
                        -----------------------------------------
Total Dipole Moment    :     -0.64785      -0.81557      -0.00115
                        -----------------------------------------
Magnitude (a.u.)       :      1.04157
Magnitude (Debye)      :      2.64745

Rotational constants in cm-1:     0.047178     0.019413     0.018462
Rotational constants in MHz :  1414.363160   581.997785   553.465633

                             ****ORCA TERMINATED NORMALLY****
TOTAL RUN TIME: 0 days 1 hours 34 minutes 18 seconds 441 msec
