                         Program Version 4.1.x  -  STABLE  -
|  1> ! RHF DLPNO-CCSD(T) cc-pVTZ RIJK cc-pVTZ/JK cc-pVTZ/C
|  2> ! KDIIS SOSCF TightSCF TightPNO
|  3>
|  4> %pal nprocs 8 end
|  5>
|  6> %maxcore 8000
|  7>
|  8> %scf maxiter 300
|  9>      shift shift 0.2 erroff 0.1 end
| 10> end
| 11>
| 12> * xyzfile 0 1 bicyclooctyl_CMe2Cl.xyz
| 13>
| 14>
| 15>                          ****END OF INPUT****

CARTESIAN COORDINATES (ANGSTROEM)
---------------------------------
  C     -2.385190   -1.202380    0.000000
  C     -1.696300    0.189120    0.000000
  C     -1.336450   -2.316580    0.000000
  C     -0.151550    0.039730    0.000000
  C     -0.456650   -2.174530    1.242440
  C      0.228890   -0.783490    1.255040
  C     -0.456650   -2.174530   -1.242440
  C      0.228890   -0.783490   -1.255040
  C      0.528820    1.454560    0.000000
  C      0.228890    2.295600    1.244910
  Cl     2.369830    1.239160    0.000000
  C      0.228890    2.295600   -1.244910
  H     -3.027490   -1.302940   -0.870650
  H     -3.027490   -1.302940    0.870650
  H     -2.017090    0.750430    0.870020
  H     -2.017090    0.750430   -0.870020
  H     -1.827730   -3.286420    0.000000
  H      0.290210   -2.963550    1.253530
  H     -1.058360   -2.306520    2.137790
  H      1.304000   -0.896670    1.305450
  H     -0.070050   -0.247060    2.147850
  H     -1.058360   -2.306520   -2.137790
  H      0.290210   -2.963550   -1.253530
  H     -0.070050   -0.247060   -2.147850
  H      1.304000   -0.896670   -1.305450
  H      0.766920    3.233580    1.185700
  H     -0.829990    2.522560    1.300000
  H      0.527460    1.801730    2.158280
  H      0.766920    3.233580   -1.185700
  H      0.527460    1.801730   -2.158280
  H     -0.829990    2.522560   -1.300000

 Total Charge           Charge          ....    0
 Multiplicity           Mult            ....    1
 Number of Electrons    NEL             ....  102
 Basis Dimension        Dim             ....  630

ORBITAL ENERGIES
----------------

  NO   OCC          E(Eh)            E(eV)
   0   2.0000    -104.800167     -2851.7575
   1   2.0000     -11.304300      -307.6056
   2   2.0000     -11.243222      -305.9436
   3   2.0000     -11.220087      -305.3141
   4   2.0000     -11.220072      -305.3137
   5   2.0000     -11.219835      -305.3072
   6   2.0000     -11.217513      -305.2440
   7   2.0000     -11.215504      -305.1894
   8   2.0000     -11.211731      -305.0867
   9   2.0000     -11.211688      -305.0855
  10   2.0000     -11.210816      -305.0618
  11   2.0000     -11.210802      -305.0614
  12   2.0000     -10.525818      -286.4221
  13   2.0000      -7.992393      -217.4841
  14   2.0000      -7.990926      -217.4442
  15   2.0000      -7.990907      -217.4436
  16   2.0000      -1.168718       -31.8024
  17   2.0000      -1.123270       -30.5657
  18   2.0000      -1.029309       -28.0089
  19   2.0000      -1.004984       -27.3470
  20   2.0000      -1.002256       -27.2728
  21   2.0000      -0.994510       -27.0620
  22   2.0000      -0.947372       -25.7793
  23   2.0000      -0.839251       -22.8372
  24   2.0000      -0.835027       -22.7222
  25   2.0000      -0.832474       -22.6528
  26   2.0000      -0.752262       -20.4701
  27   2.0000      -0.682240       -18.5647
  28   2.0000      -0.659433       -17.9441
  29   2.0000      -0.651219       -17.7206
  30   2.0000      -0.648804       -17.6548
  31   2.0000      -0.612048       -16.6547
  32   2.0000      -0.593365       -16.1463
  33   2.0000      -0.588580       -16.0161
  34   2.0000      -0.568170       -15.4607
  35   2.0000      -0.558157       -15.1882
  36   2.0000      -0.543599       -14.7921
  37   2.0000      -0.527275       -14.3479
  38   2.0000      -0.519839       -14.1455
  39   2.0000      -0.518737       -14.1156
  40   2.0000      -0.506149       -13.7730
  41   2.0000      -0.503897       -13.7117
  42   2.0000      -0.493469       -13.4280
  43   2.0000      -0.484059       -13.1719
  44   2.0000      -0.469194       -12.7674
  45   2.0000      -0.460359       -12.5270
  46   2.0000      -0.430693       -11.7197
  47   2.0000      -0.420348       -11.4382
  48   2.0000      -0.412535       -11.2257
  49   2.0000      -0.405632       -11.0378
  50   2.0000      -0.405500       -11.0342
  51   0.0000       0.126662         3.4467
  52   0.0000       0.153027         4.1641
  53   0.0000       0.160493         4.3672
  54   0.0000       0.168730         4.5914
  55   0.0000       0.174519         4.7489

MULLIKEN ATOMIC CHARGES
-----------------------
   0 C :   -0.229237
   1 C :   -0.261818
   2 C :   -0.053791
   3 C :    0.058595
   4 C :   -0.227140
   5 C :   -0.256796
   6 C :   -0.227140
   7 C :   -0.256796
   8 C :    0.120878
   9 C :   -0.299604
  10 Cl:   -0.270583
  11 C :   -0.299604
  12 H :    0.110305
  13 H :    0.110305
  14 H :    0.118603
  15 H :    0.118603
  16 H :    0.106918
  17 H :    0.110685
  18 H :    0.108213
  19 H :    0.138725
  20 H :    0.110436
  21 H :    0.108213
  22 H :    0.110685
  23 H :    0.110436
  24 H :    0.138725
  25 H :    0.125763
  26 H :    0.102314
  27 H :    0.123016
  28 H :    0.125763
  29 H :    0.123016
  30 H :    0.102314
Sum of atomic charges:   -0.0000000

LOEWDIN ATOMIC CHARGES
----------------------
   0 C :    0.082269
   1 C :    0.086092
   2 C :   -0.011570
   3 C :   -0.086840
   4 C :    0.080167
   5 C :    0.083694
   6 C :    0.080167
   7 C :    0.083694
   8 C :   -0.200951
   9 C :    0.104544
  10 Cl:    0.174852
  11 C :    0.104544
  12 H :   -0.030263
  13 H :   -0.030263
  14 H :   -0.032963
  15 H :   -0.032963
  16 H :   -0.028073
  17 H :   -0.029592
  18 H :   -0.031141
  19 H :   -0.033939
  20 H :   -0.033693
  21 H :   -0.031141
  22 H :   -0.029592
  23 H :   -0.033693
  24 H :   -0.033939
  25 H :   -0.025054
  26 H :   -0.029602
  27 H :   -0.030047
  28 H :   -0.025054
  29 H :   -0.030047
  30 H :   -0.029602

  Mayer bond orders larger than 0.1
B(  0-C ,  1-C ) :   0.9368 B(  0-C ,  2-C ) :   0.9425 B(  0-C , 12-H ) :   1.0014
B(  0-C , 13-H ) :   1.0014 B(  1-C ,  3-C ) :   0.9276 B(  1-C , 14-H ) :   0.9955
B(  1-C , 15-H ) :   0.9955 B(  2-C ,  4-C ) :   0.9419 B(  2-C ,  6-C ) :   0.9419
B(  2-C , 16-H ) :   1.0010 B(  3-C ,  5-C ) :   0.9343 B(  3-C ,  7-C ) :   0.9343
B(  3-C ,  8-C ) :   0.9783 B(  4-C ,  5-C ) :   0.9334 B(  4-C , 17-H ) :   1.0010
B(  4-C , 18-H ) :   1.0018 B(  5-C , 19-H ) :   0.9849 B(  5-C , 20-H ) :   0.9990
B(  6-C ,  7-C ) :   0.9334 B(  6-C , 21-H ) :   1.0018 B(  6-C , 22-H ) :   1.0010
B(  7-C , 23-H ) :   0.9990 B(  7-C , 24-H ) :   0.9849 B(  8-C ,  9-C ) :   0.9405
B(  8-C , 10-Cl) :   0.9330 B(  8-C , 11-C ) :   0.9405 B(  9-C , 25-H ) :   0.9817
B(  9-C , 26-H ) :   0.9747 B(  9-C , 27-H ) :   0.9789 B( 11-C , 28-H ) :   0.9817
B( 11-C , 29-H ) :   0.9789 B( 11-C , 30-H ) :   0.9747

E(0)                                       ...   -887.274409634
E(0)                                       ...   -887.274409634
E(CORR)(strong-pairs)                      ...     -2.191894456
E(CORR)(weak-pairs)                        ...     -0.003176670
E(CORR)(corrected)                         ...     -2.195071126
E(TOT)                                     ...   -889.469480760
E(CCSD(T))                                 ...   -889.562918842
FINAL SINGLE POINT ENERGY      -889.562918841867

DIPOLE MOMENT
-------------
                                X             Y             Z
Electronic contribution:     12.81284       3.96153      -0.00000
Nuclear contribution   :    -13.79531      -3.97654       0.00000
                        -----------------------------------------
Total Dipole Moment    :     -0.98247      -0.01502      -0.00000
                        -----------------------------------------
Magnitude (a.u.)       :      0.98259
Magnitude (Debye)      :      2.49754

Rotational constants in cm-1:     0.047192     0.020300     0.019249
Rotational constants in MHz :  1414.793367   608.567415   577.083577

                             ****ORCA TERMINATED NORMALLY****
TOTAL RUN TIME: 0 days 1 hours 37 minutes 54 seconds 149 msec
