                         Program Version 4.1.x  -  STABLE  -
|  1> ! RHF DLPNO-CCSD(T) cc-pVTZ RIJK cc-pVTZ/JK cc-pVTZ/C
|  2> ! KDIIS SOSCF TightSCF TightPNO
|  3>
|  4> %pal nprocs 16 end
|  5>
|  6> %maxcore 7000
|  7>
|  8> %scf maxiter 300
|  9>      shift shift 0.2 erroff 0.1 end
| 10> end
| 11>
| 12> * xyzfile 0 1 BisSiMe3_cycl_diaxial.xyz
| 13>
| 14>
| 15>                          ****END OF INPUT****

CARTESIAN COORDINATES (ANGSTROEM)
---------------------------------
  C      0.580060    2.580990    0.502840
  C     -0.579700    2.581090   -0.502850
  C     -0.553540    1.314390   -1.371190
  C     -0.556030   -0.002710   -0.552060
  C      0.555990   -0.002750    0.552120
  C      0.553570    1.314370    1.371210
  Si    -2.284740   -0.584570    0.062300
  C     -2.137920   -2.419760    0.528070
  Si     2.284680   -0.584650   -0.062290
  C      2.137770   -2.419800   -0.528160
  C     -2.978180    0.335490    1.572190
  C     -3.536670   -0.429180   -1.356790
  C      2.978160    0.335420   -1.572150
  C      3.536630   -0.429360    1.356790
  H     -1.395510    1.322760   -2.073920
  H      0.352480    1.352410   -1.991240
  H     -0.323700   -0.809420   -1.268370
  H      0.323660   -0.809460    1.268430
  H     -1.530780    2.645420    0.043830
  H     -0.529760    3.470370   -1.143870
  H      1.395380    1.322650    2.074130
  H     -0.352600    1.352570    1.991030
  H      1.531160    2.645030   -0.043840
  H      0.530340    3.470330    1.143790
  H     -3.960840   -0.077970    1.831650
  H     -2.334770    0.223760    2.451700
  H     -3.109690    1.406850    1.387580
  H     -4.485700   -0.904890   -1.081810
  H     -3.752350    0.616910   -1.601470
  H     -3.175950   -0.916970   -2.270200
  H     -3.108190   -2.812680    0.854350
  H     -1.804610   -3.025360   -0.322830
  H     -1.427800   -2.580530    1.347390
  H      3.960760   -0.078120   -1.831670
  H      2.334700    0.223820   -2.451650
  H      3.109810    1.406760   -1.387490
  H      4.485660   -0.905070    1.081780
  H      3.752320    0.616710    1.601520
  H      3.175920   -0.917190    2.270170
  H      3.108040   -2.812760   -0.854420
  H      1.804400   -3.025440    0.322690
  H      1.427670   -2.580500   -1.347520

 Total Charge           Charge          ....    0
 Multiplicity           Mult            ....    1
 Number of Electrons    NEL             ....  128
 Basis Dimension        Dim             ....  820

ORBITAL ENERGIES
----------------

  NO   OCC          E(Eh)            E(eV)
   0   2.0000     -68.749253     -1870.7623
   1   2.0000     -68.749253     -1870.7623
   2   2.0000     -11.216249      -305.2097
   3   2.0000     -11.216236      -305.2093
   4   2.0000     -11.214852      -305.1716
   5   2.0000     -11.214271      -305.1558
   6   2.0000     -11.209741      -305.0325
   7   2.0000     -11.209223      -305.0185
   8   2.0000     -11.195720      -304.6510
   9   2.0000     -11.195719      -304.6510
  10   2.0000     -11.194774      -304.6253
  11   2.0000     -11.194773      -304.6253
  12   2.0000     -11.193794      -304.5986
  13   2.0000     -11.193793      -304.5986
  14   2.0000      -6.096018      -165.8811
  15   2.0000      -6.096017      -165.8811
  16   2.0000      -4.202292      -114.3502
  17   2.0000      -4.202292      -114.3502
  18   2.0000      -4.202261      -114.3493
  19   2.0000      -4.202261      -114.3493
  20   2.0000      -4.201973      -114.3415
  21   2.0000      -4.201972      -114.3415
  22   2.0000      -1.100883       -29.9565
  23   2.0000      -0.996657       -27.1204
  24   2.0000      -0.996496       -27.1160
  25   2.0000      -0.957893       -26.0656
  26   2.0000      -0.949964       -25.8498
  27   2.0000      -0.917058       -24.9544
  28   2.0000      -0.916867       -24.9492
  29   2.0000      -0.916543       -24.9404
  30   2.0000      -0.915172       -24.9031
  31   2.0000      -0.822820       -22.3901
  32   2.0000      -0.822779       -22.3890
  33   2.0000      -0.735430       -20.0121
  34   2.0000      -0.647151       -17.6099
  35   2.0000      -0.627267       -17.0688
  36   2.0000      -0.614731       -16.7277
  37   2.0000      -0.611846       -16.6492
  38   2.0000      -0.584474       -15.9043
  39   2.0000      -0.569224       -15.4894
  40   2.0000      -0.560514       -15.2524
  41   2.0000      -0.554639       -15.0925
  42   2.0000      -0.554019       -15.0756
  43   2.0000      -0.552991       -15.0477
  44   2.0000      -0.550570       -14.9818
  45   2.0000      -0.540080       -14.6963
  46   2.0000      -0.537769       -14.6334
  47   2.0000      -0.534341       -14.5402
  48   2.0000      -0.532505       -14.4902
  49   2.0000      -0.527442       -14.3524
  50   2.0000      -0.525052       -14.2874
  51   2.0000      -0.515809       -14.0359
  52   2.0000      -0.511428       -13.9167
  53   2.0000      -0.511112       -13.9081
  54   2.0000      -0.509244       -13.8572
  55   2.0000      -0.462515       -12.5857
  56   2.0000      -0.438137       -11.9223
  57   2.0000      -0.434179       -11.8146
  58   2.0000      -0.431869       -11.7518
  59   2.0000      -0.419258       -11.4086
  60   2.0000      -0.419064       -11.4033
  61   2.0000      -0.411403       -11.1948
  62   2.0000      -0.410315       -11.1652
  63   2.0000      -0.353498        -9.6192
  64   0.0000       0.119137         3.2419
  65   0.0000       0.136734         3.7207
  66   0.0000       0.151893         4.1332
  67   0.0000       0.153006         4.1635
  68   0.0000       0.171574         4.6688

MULLIKEN ATOMIC CHARGES
-----------------------
   0 C :   -0.195274
   1 C :   -0.195278
   2 C :   -0.242016
   3 C :   -0.213369
   4 C :   -0.213373
   5 C :   -0.241999
   6 Si:    0.413735
   7 C :   -0.429575
   8 Si:    0.413726
   9 C :   -0.429576
  10 C :   -0.439587
  11 C :   -0.432239
  12 C :   -0.439588
  13 C :   -0.432238
  14 H :    0.126207
  15 H :    0.115263
  16 H :    0.116924
  17 H :    0.116928
  18 H :    0.091246
  19 H :    0.113477
  20 H :    0.126209
  21 H :    0.115251
  22 H :    0.091240
  23 H :    0.113482
  24 H :    0.115445
  25 H :    0.108222
  26 H :    0.112500
  27 H :    0.109089
  28 H :    0.105155
  29 H :    0.105987
  30 H :    0.108304
  31 H :    0.105613
  32 H :    0.104894
  33 H :    0.115451
  34 H :    0.108220
  35 H :    0.112500
  36 H :    0.109085
  37 H :    0.105160
  38 H :    0.105991
  39 H :    0.108301
  40 H :    0.105613
  41 H :    0.104893
Sum of atomic charges:   -0.0000000

LOEWDIN ATOMIC CHARGES
----------------------
   0 C :    0.057686
   1 C :    0.057699
   2 C :    0.050414
   3 C :   -0.073538
   4 C :   -0.073533
   5 C :    0.050398
   6 Si:    0.370469
   7 C :    0.017410
   8 Si:    0.370466
   9 C :    0.017404
  10 C :    0.011871
  11 C :    0.015597
  12 C :    0.011871
  13 C :    0.015601
  14 H :   -0.025802
  15 H :   -0.027102
  16 H :   -0.026879
  17 H :   -0.026881
  18 H :   -0.029178
  19 H :   -0.026638
  20 H :   -0.025802
  21 H :   -0.027097
  22 H :   -0.029174
  23 H :   -0.026636
  24 H :   -0.031484
  25 H :   -0.036558
  26 H :   -0.038176
  27 H :   -0.032896
  28 H :   -0.036258
  29 H :   -0.033627
  30 H :   -0.033383
  31 H :   -0.034411
  32 H :   -0.037523
  33 H :   -0.031489
  34 H :   -0.036555
  35 H :   -0.038173
  36 H :   -0.032891
  37 H :   -0.036260
  38 H :   -0.033632
  39 H :   -0.033379
  40 H :   -0.034411
  41 H :   -0.037519

  Mayer bond orders larger than 0.1
B(  0-C ,  1-C ) :   0.9450 B(  0-C ,  5-C ) :   0.9493 B(  0-C , 22-H ) :   0.9826
B(  0-C , 23-H ) :   0.9946 B(  1-C ,  2-C ) :   0.9494 B(  1-C , 18-H ) :   0.9826
B(  1-C , 19-H ) :   0.9946 B(  2-C ,  3-C ) :   0.9436 B(  2-C , 14-H ) :   0.9917
B(  2-C , 15-H ) :   0.9810 B(  3-C ,  4-C ) :   0.9411 B(  3-C ,  6-Si) :   0.9990
B(  3-C , 16-H ) :   0.9651 B(  4-C ,  5-C ) :   0.9437 B(  4-C ,  8-Si) :   0.9990
B(  4-C , 17-H ) :   0.9651 B(  5-C , 20-H ) :   0.9917 B(  5-C , 21-H ) :   0.9810
B(  6-Si,  7-C ) :   1.0222 B(  6-Si, 10-C ) :   1.0110 B(  6-Si, 11-C ) :   1.0266
B(  7-C , 30-H ) :   0.9654 B(  7-C , 31-H ) :   0.9619 B(  7-C , 32-H ) :   0.9624
B(  8-Si,  9-C ) :   1.0222 B(  8-Si, 12-C ) :   1.0110 B(  8-Si, 13-C ) :   1.0266
B(  9-C , 39-H ) :   0.9654 B(  9-C , 40-H ) :   0.9619 B(  9-C , 41-H ) :   0.9624
B( 10-C , 24-H ) :   0.9643 B( 10-C , 25-H ) :   0.9632 B( 10-C , 26-H ) :   0.9635
B( 11-C , 27-H ) :   0.9648 B( 11-C , 28-H ) :   0.9627 B( 11-C , 29-H ) :   0.9616
B( 12-C , 33-H ) :   0.9643 B( 12-C , 34-H ) :   0.9632 B( 12-C , 35-H ) :   0.9635
B( 13-C , 36-H ) :   0.9648 B( 13-C , 37-H ) :   0.9627 B( 13-C , 38-H ) :   0.9616

E(0)                                       ...  -1048.842343598
E(0)                                       ...  -1048.842343598
E(CORR)(strong-pairs)                      ...     -2.513239151
E(CORR)(weak-pairs)                        ...     -0.003604264
E(CORR)(corrected)                         ...     -2.516843414
E(TOT)                                     ...  -1051.359187012
E(CCSD(T))                                 ...  -1051.461413694
FINAL SINGLE POINT ENERGY     -1051.461413694098

DIPOLE MOMENT
-------------
                                X             Y             Z
Electronic contribution:     -0.00004       0.17972       0.00028
Nuclear contribution   :      0.00004      -0.11470      -0.00027
                        -----------------------------------------
Total Dipole Moment    :      0.00001       0.06502       0.00000
                        -----------------------------------------
Magnitude (a.u.)       :      0.06502
Magnitude (Debye)      :      0.16526

Rotational constants in cm-1:     0.023772     0.012320     0.010522
Rotational constants in MHz :   712.675871   369.356504   315.448572

                             ****ORCA TERMINATED NORMALLY****
TOTAL RUN TIME: 0 days 1 hours 11 minutes 39 seconds 365 msec
