                         Program Version 4.1.x  -  STABLE  -
|  1> ! RHF DLPNO-CCSD(T) cc-pVTZ RIJK cc-pVTZ/JK cc-pVTZ/C
|  2> ! KDIIS SOSCF TightSCF TightPNO
|  3>
|  4> %pal nprocs 16 end
|  5>
|  6> %maxcore 7000
|  7>
|  8> %scf maxiter 300
|  9>      shift shift 0.2 erroff 0.1 end
| 10> end
| 11>
| 12> * xyzfile 0 1 BisSiMe3_cycl_dieq.xyz
| 13>
| 14>
| 15>                          ****END OF INPUT****

CARTESIAN COORDINATES (ANGSTROEM)
---------------------------------
  C      0.667170    3.241640   -0.371860
  C     -0.667450    3.241580    0.371850
  C     -1.466690    1.973460    0.049240
  C     -0.704660    0.648230    0.347280
  C      0.704620    0.648280   -0.347140
  C      1.466570    1.973600   -0.049260
  Si    -1.914530   -0.808950   -0.034510
  C     -3.688200   -0.297250    0.422990
  Si     1.914590   -0.808850    0.034550
  C      3.688170   -0.297290   -0.423480
  C     -1.912740   -1.225690   -1.885900
  C     -1.591380   -2.358150    1.017930
  C      1.913360   -1.225330    1.886010
  C      1.591090   -2.358130   -1.017660
  H     -2.406990    1.994150    0.609640
  H     -1.742960    2.000800   -1.016430
  H     -0.536940    0.618410    1.437520
  H      0.536820    0.618410   -1.437370
  H     -0.481820    3.289570    1.455260
  H     -1.258380    4.130430    0.115200
  H      2.406820    1.994350   -0.609740
  H      1.742930    2.001040    1.016400
  H      0.481550    3.289620   -1.455270
  H      1.258020    4.130550   -0.115210
  H     -2.637360   -2.020940   -2.098140
  H     -2.205780   -0.350520   -2.477950
  H     -0.936710   -1.559840   -2.249520
  H     -2.346390   -3.117840    0.780510
  H     -0.610300   -2.815860    0.878400
  H     -1.698060   -2.118700    2.083050
  H     -4.352990   -1.163070    0.315980
  H     -3.761000    0.042750    1.462980
  H     -4.078950    0.499660   -0.217980
  H      2.638000   -2.020580    2.098110
  H      2.206630   -0.350090    2.477860
  H      0.937430   -1.559360    2.249980
  H      2.346020   -3.117900   -0.780260
  H      0.609950   -2.815700   -0.877970
  H      1.697640   -2.118800   -2.082820
  H      4.352940   -1.163120   -0.316510
  H      3.760710    0.042530   -1.463550
  H      4.079130    0.499710    0.217250

 Total Charge           Charge          ....    0
 Multiplicity           Mult            ....    1
 Number of Electrons    NEL             ....  128
 Basis Dimension        Dim             ....  820

ORBITAL ENERGIES
----------------

  NO   OCC          E(Eh)            E(eV)
   0   2.0000     -68.751362     -1870.8197
   1   2.0000     -68.751360     -1870.8196
   2   2.0000     -11.215945      -305.2014
   3   2.0000     -11.215941      -305.2013
   4   2.0000     -11.212384      -305.1045
   5   2.0000     -11.211769      -305.0878
   6   2.0000     -11.211445      -305.0789
   7   2.0000     -11.210935      -305.0651
   8   2.0000     -11.195739      -304.6515
   9   2.0000     -11.195736      -304.6515
  10   2.0000     -11.194847      -304.6273
  11   2.0000     -11.194844      -304.6272
  12   2.0000     -11.193094      -304.5796
  13   2.0000     -11.193094      -304.5796
  14   2.0000      -6.097951      -165.9337
  15   2.0000      -6.097949      -165.9336
  16   2.0000      -4.204324      -114.4055
  17   2.0000      -4.204322      -114.4054
  18   2.0000      -4.204185      -114.4017
  19   2.0000      -4.204183      -114.4016
  20   2.0000      -4.203882      -114.3934
  21   2.0000      -4.203880      -114.3934
  22   2.0000      -1.101095       -29.9623
  23   2.0000      -0.997712       -27.1491
  24   2.0000      -0.994659       -27.0660
  25   2.0000      -0.953870       -25.9561
  26   2.0000      -0.953367       -25.9424
  27   2.0000      -0.920936       -25.0599
  28   2.0000      -0.917864       -24.9763
  29   2.0000      -0.916232       -24.9319
  30   2.0000      -0.911846       -24.8126
  31   2.0000      -0.819409       -22.2973
  32   2.0000      -0.818024       -22.2596
  33   2.0000      -0.745041       -20.2736
  34   2.0000      -0.651381       -17.7250
  35   2.0000      -0.626704       -17.0535
  36   2.0000      -0.605404       -16.4739
  37   2.0000      -0.597992       -16.2722
  38   2.0000      -0.588176       -16.0051
  39   2.0000      -0.573017       -15.5926
  40   2.0000      -0.569085       -15.4856
  41   2.0000      -0.562614       -15.3095
  42   2.0000      -0.557601       -15.1731
  43   2.0000      -0.555358       -15.1120
  44   2.0000      -0.553135       -15.0516
  45   2.0000      -0.546138       -14.8612
  46   2.0000      -0.536190       -14.5905
  47   2.0000      -0.530930       -14.4473
  48   2.0000      -0.530644       -14.4396
  49   2.0000      -0.524243       -14.2654
  50   2.0000      -0.523907       -14.2562
  51   2.0000      -0.519348       -14.1322
  52   2.0000      -0.508981       -13.8501
  53   2.0000      -0.487809       -13.2740
  54   2.0000      -0.482993       -13.1429
  55   2.0000      -0.475414       -12.9367
  56   2.0000      -0.461825       -12.5669
  57   2.0000      -0.440871       -11.9967
  58   2.0000      -0.423644       -11.5279
  59   2.0000      -0.421187       -11.4611
  60   2.0000      -0.418628       -11.3915
  61   2.0000      -0.415005       -11.2929
  62   2.0000      -0.388995       -10.5851
  63   2.0000      -0.366164        -9.9638
  64   0.0000       0.125253         3.4083
  65   0.0000       0.140829         3.8321
  66   0.0000       0.145716         3.9651
  67   0.0000       0.151844         4.1319
  68   0.0000       0.173247         4.7143

MULLIKEN ATOMIC CHARGES
-----------------------
   0 C :   -0.188534
   1 C :   -0.188529
   2 C :   -0.221244
   3 C :   -0.187030
   4 C :   -0.187044
   5 C :   -0.221237
   6 Si:    0.374367
   7 C :   -0.438097
   8 Si:    0.374396
   9 C :   -0.438090
  10 C :   -0.420239
  11 C :   -0.443753
  12 C :   -0.420221
  13 C :   -0.443783
  14 H :    0.123188
  15 H :    0.095992
  16 H :    0.108298
  17 H :    0.108294
  18 H :    0.086090
  19 H :    0.106073
  20 H :    0.123189
  21 H :    0.095980
  22 H :    0.086094
  23 H :    0.106067
  24 H :    0.109596
  25 H :    0.107289
  26 H :    0.117093
  27 H :    0.117476
  28 H :    0.120613
  29 H :    0.108959
  30 H :    0.109446
  31 H :    0.104952
  32 H :    0.109467
  33 H :    0.109596
  34 H :    0.107285
  35 H :    0.117077
  36 H :    0.117489
  37 H :    0.120612
  38 H :    0.108959
  39 H :    0.109449
  40 H :    0.104952
  41 H :    0.109465
Sum of atomic charges:   -0.0000000

LOEWDIN ATOMIC CHARGES
----------------------
   0 C :    0.053842
   1 C :    0.053843
   2 C :    0.045243
   3 C :   -0.072880
   4 C :   -0.072888
   5 C :    0.045248
   6 Si:    0.375612
   7 C :    0.016959
   8 Si:    0.375621
   9 C :    0.016960
  10 C :    0.016322
  11 C :    0.014500
  12 C :    0.016324
  13 C :    0.014497
  14 H :   -0.023418
  15 H :   -0.025233
  16 H :   -0.033337
  17 H :   -0.033331
  18 H :   -0.027139
  19 H :   -0.027313
  20 H :   -0.023421
  21 H :   -0.025231
  22 H :   -0.027143
  23 H :   -0.027312
  24 H :   -0.031833
  25 H :   -0.033495
  26 H :   -0.037325
  27 H :   -0.030462
  28 H :   -0.043125
  29 H :   -0.032511
  30 H :   -0.032925
  31 H :   -0.035054
  32 H :   -0.036430
  33 H :   -0.031840
  34 H :   -0.033487
  35 H :   -0.037333
  36 H :   -0.030467
  37 H :   -0.043116
  38 H :   -0.032510
  39 H :   -0.032928
  40 H :   -0.035053
  41 H :   -0.036432

  Mayer bond orders larger than 0.1
B(  0-C ,  1-C ) :   0.9518 B(  0-C ,  5-C ) :   0.9579 B(  0-C , 22-H ) :   0.9859
B(  0-C , 23-H ) :   0.9957 B(  1-C ,  2-C ) :   0.9579 B(  1-C , 18-H ) :   0.9859
B(  1-C , 19-H ) :   0.9957 B(  2-C ,  3-C ) :   0.9343 B(  2-C , 14-H ) :   0.9922
B(  2-C , 15-H ) :   0.9792 B(  3-C ,  4-C ) :   0.9611 B(  3-C ,  6-Si) :   1.0000
B(  3-C , 16-H ) :   0.9574 B(  4-C ,  5-C ) :   0.9343 B(  4-C ,  8-Si) :   1.0000
B(  4-C , 17-H ) :   0.9574 B(  5-C , 20-H ) :   0.9922 B(  5-C , 21-H ) :   0.9792
B(  6-Si,  7-C ) :   1.0437 B(  6-Si, 10-C ) :   1.0044 B(  6-Si, 11-C ) :   1.0144
B(  7-C , 30-H ) :   0.9650 B(  7-C , 31-H ) :   0.9598 B(  7-C , 32-H ) :   0.9634
B(  8-Si,  9-C ) :   1.0437 B(  8-Si, 12-C ) :   1.0044 B(  8-Si, 13-C ) :   1.0144
B(  9-C , 39-H ) :   0.9650 B(  9-C , 40-H ) :   0.9598 B(  9-C , 41-H ) :   0.9634
B( 10-C , 24-H ) :   0.9645 B( 10-C , 25-H ) :   0.9621 B( 10-C , 26-H ) :   0.9645
B( 11-C , 27-H ) :   0.9636 B( 11-C , 28-H ) :   0.9640 B( 11-C , 29-H ) :   0.9593
B( 12-C , 33-H ) :   0.9645 B( 12-C , 34-H ) :   0.9621 B( 12-C , 35-H ) :   0.9645
B( 13-C , 36-H ) :   0.9636 B( 13-C , 37-H ) :   0.9640 B( 13-C , 38-H ) :   0.9593

E(0)                                       ...  -1048.839431100
E(0)                                       ...  -1048.839431100
E(CORR)(strong-pairs)                      ...     -2.514881747
E(CORR)(weak-pairs)                        ...     -0.003898421
E(CORR)(corrected)                         ...     -2.518780167
E(TOT)                                     ...  -1051.358211267
E(CCSD(T))                                 ...  -1051.460795560
FINAL SINGLE POINT ENERGY     -1051.460795560395

DIPOLE MOMENT
-------------
                                X             Y             Z
Electronic contribution:      0.00002       1.16128       0.00062
Nuclear contribution   :     -0.00004      -1.09627      -0.00061
                        -----------------------------------------
Total Dipole Moment    :     -0.00001       0.06501       0.00001
                        -----------------------------------------
Magnitude (a.u.)       :      0.06501
Magnitude (Debye)      :      0.16525

Rotational constants in cm-1:     0.019183     0.015309     0.010405
Rotational constants in MHz :   575.079555   458.962194   311.923586

                             ****ORCA TERMINATED NORMALLY****
TOTAL RUN TIME: 0 days 1 hours 6 minutes 44 seconds 456 msec
