                         Program Version 4.1.x  -  STABLE  -
|  1> ! RHF DLPNO-CCSD(T) cc-pVTZ RIJK cc-pVTZ/JK cc-pVTZ/C
|  2> ! KDIIS SOSCF TightSCF TightPNO
|  3>
|  4> %pal nprocs 8 end
|  5>
|  6> %maxcore 8000
|  7>
|  8> %scf maxiter 300
|  9>      shift shift 0.2 erroff 0.1 end
| 10> end
| 11>
| 12> * xyzfile 0 1 but_1_ene_3_one_t.xyz
| 13>
| 14>
| 15>                          ****END OF INPUT****

CARTESIAN COORDINATES (ANGSTROEM)
---------------------------------
  C      1.945110    0.176540    0.000040
  C      0.878620   -0.634170   -0.000000
  C     -0.542480   -0.187460   -0.000620
  O     -1.433600   -1.027810    0.000180
  C     -0.865080    1.296020    0.000130
  H      2.955150   -0.222500    0.000350
  H      1.852740    1.258900   -0.000250
  H      0.997900   -1.715220    0.000350
  H     -1.948550    1.420850    0.000700
  H     -0.442310    1.787190    0.883680
  H     -0.443200    1.787720   -0.883540

 Total Charge           Charge          ....    0
 Multiplicity           Mult            ....    1
 Number of Electrons    NEL             ....   38
 Basis Dimension        Dim             ....  234

ORBITAL ENERGIES
----------------

  NO   OCC          E(Eh)            E(eV)
   0   2.0000     -20.544845      -559.0537
   1   2.0000     -11.335547      -308.4559
   2   2.0000     -11.262461      -306.4672
   3   2.0000     -11.251719      -306.1748
   4   2.0000     -11.237659      -305.7922
   5   2.0000      -1.379284       -37.5322
   6   2.0000      -1.082001       -29.4428
   7   2.0000      -0.997218       -27.1357
   8   2.0000      -0.862253       -23.4631
   9   2.0000      -0.732907       -19.9434
  10   2.0000      -0.669967       -18.2307
  11   2.0000      -0.651325       -17.7234
  12   2.0000      -0.602197       -16.3866
  13   2.0000      -0.591418       -16.0933
  14   2.0000      -0.561838       -15.2884
  15   2.0000      -0.537159       -14.6168
  16   2.0000      -0.504529       -13.7289
  17   2.0000      -0.420907       -11.4535
  18   2.0000      -0.393376       -10.7043
  19   0.0000       0.084133         2.2894
  20   0.0000       0.138160         3.7595
  21   0.0000       0.162553         4.4233
  22   0.0000       0.187097         5.0912
  23   0.0000       0.205886         5.6024

MULLIKEN ATOMIC CHARGES
-----------------------
   0 C :   -0.289768
   1 C :   -0.172539
   2 C :    0.323381
   3 O :   -0.376009
   4 C :   -0.316982
   5 H :    0.161073
   6 H :    0.149355
   7 H :    0.180254
   8 H :    0.135761
   9 H :    0.102751
  10 H :    0.102723
Sum of atomic charges:    0.0000000

LOEWDIN ATOMIC CHARGES
----------------------
   0 C :    0.131734
   1 C :    0.006578
   2 C :   -0.248608
   3 O :    0.130514
   4 C :    0.113067
   5 H :   -0.028812
   6 H :   -0.034155
   7 H :   -0.017801
   8 H :   -0.014457
   9 H :   -0.019011
  10 H :   -0.019049

  Mayer bond orders larger than 0.1
B(  0-C ,  1-C ) :   1.8016 B(  0-C ,  5-H ) :   0.9691 B(  0-C ,  6-H ) :   0.9615
B(  1-C ,  2-C ) :   0.9905 B(  1-C ,  7-H ) :   0.9472 B(  2-C ,  3-O ) :   2.0516
B(  2-C ,  4-C ) :   0.9402 B(  4-C ,  8-H ) :   0.9798 B(  4-C ,  9-H ) :   0.9652
B(  4-C , 10-H ) :   0.9652

E(0)                                       ...   -229.888112871
E(0)                                       ...   -229.888112871
E(CORR)(strong-pairs)                      ...     -0.914965877
E(CORR)(weak-pairs)                        ...     -0.000635436
E(CORR)(corrected)                         ...     -0.915601313
E(TOT)                                     ...   -230.803714184
E(CCSD(T))                                 ...   -230.843233374
FINAL SINGLE POINT ENERGY      -230.843233373966

DIPOLE MOMENT
-------------
                                X             Y             Z
Electronic contribution:     -1.91221      -3.41730      -0.00161
Nuclear contribution   :      3.00282       4.37901       0.00131
                        -----------------------------------------
Total Dipole Moment    :      1.09061       0.96171      -0.00030
                        -----------------------------------------
Magnitude (a.u.)       :      1.45407
Magnitude (Debye)      :      3.69594

Rotational constants in cm-1:     0.296648     0.141259     0.097433
Rotational constants in MHz :  8893.289544  4234.848614  2920.977280

                             ****ORCA TERMINATED NORMALLY****
TOTAL RUN TIME: 0 days 0 hours 2 minutes 55 seconds 661 msec
