                         Program Version 4.1.x  -  STABLE  -
|  1> ! RHF DLPNO-CCSD(T) cc-pVTZ RIJK cc-pVTZ/JK cc-pVTZ/C
|  2> ! KDIIS SOSCF TightSCF TightPNO
|  3>
|  4> %pal nprocs 8 end
|  5>
|  6> %maxcore 8000
|  7>
|  8> %scf maxiter 300
|  9>      shift shift 0.2 erroff 0.1 end
| 10> end
| 11>
| 12> * xyzfile 0 1 but_1_ene_3_one_cis.xyz
| 13>
| 14>
| 15>                          ****END OF INPUT****

CARTESIAN COORDINATES (ANGSTROEM)
---------------------------------
  C     -0.597120   -1.934020    0.000000
  C      0.345270   -0.983730    0.000000
  C      0.000000    0.472990    0.000000
  O     -1.159860    0.861540    0.000000
  C      1.164920    1.442290    0.000000
  H     -0.342960   -2.989440    0.000000
  H     -1.648680   -1.660230    0.000000
  H      1.401630   -1.246030    0.000000
  H      0.796760    2.468860    0.000000
  H      1.796880    1.274700    0.881010
  H      1.796880    1.274700   -0.881010

 Total Charge           Charge          ....    0
 Multiplicity           Mult            ....    1
 Number of Electrons    NEL             ....   38
 Basis Dimension        Dim             ....  234

ORBITAL ENERGIES
----------------

  NO   OCC          E(Eh)            E(eV)
   0   2.0000     -20.539640      -558.9120
   1   2.0000     -11.334185      -308.4189
   2   2.0000     -11.256735      -306.3113
   3   2.0000     -11.245229      -305.9982
   4   2.0000     -11.236691      -305.7659
   5   2.0000      -1.375988       -37.4425
   6   2.0000      -1.071664       -29.1615
   7   2.0000      -1.005919       -27.3725
   8   2.0000      -0.849920       -23.1275
   9   2.0000      -0.726989       -19.7824
  10   2.0000      -0.673396       -18.3241
  11   2.0000      -0.640073       -17.4173
  12   2.0000      -0.599879       -16.3235
  13   2.0000      -0.593292       -16.1443
  14   2.0000      -0.555162       -15.1067
  15   2.0000      -0.535315       -14.5667
  16   2.0000      -0.503502       -13.7010
  17   2.0000      -0.417052       -11.3486
  18   2.0000      -0.386540       -10.5183
  19   0.0000       0.085422         2.3245
  20   0.0000       0.137043         3.7291
  21   0.0000       0.164466         4.4753
  22   0.0000       0.189817         5.1652
  23   0.0000       0.193754         5.2723

MULLIKEN ATOMIC CHARGES
-----------------------
   0 C :   -0.248824
   1 C :   -0.223181
   2 C :    0.326029
   3 O :   -0.379087
   4 C :   -0.294283
   5 H :    0.153646
   6 H :    0.174859
   7 H :    0.160491
   8 H :    0.129516
   9 H :    0.100416
  10 H :    0.100416
Sum of atomic charges:    0.0000000

LOEWDIN ATOMIC CHARGES
----------------------
   0 C :    0.163203
   1 C :   -0.015322
   2 C :   -0.250056
   3 O :    0.122412
   4 C :    0.112105
   5 H :   -0.030646
   6 H :   -0.022830
   7 H :   -0.029481
   8 H :   -0.015886
   9 H :   -0.016749
  10 H :   -0.016749

  Mayer bond orders larger than 0.1
B(  0-C ,  1-C ) :   1.8310 B(  0-C ,  5-H ) :   0.9744 B(  0-C ,  6-H ) :   0.9499
B(  1-C ,  2-C ) :   0.9530 B(  1-C ,  7-H ) :   0.9558 B(  2-C ,  3-O ) :   2.0633
B(  2-C ,  4-C ) :   0.9606 B(  4-C ,  8-H ) :   0.9814 B(  4-C ,  9-H ) :   0.9652
B(  4-C , 10-H ) :   0.9652

E(0)                                       ...   -229.887898443
E(0)                                       ...   -229.887898443
E(CORR)(strong-pairs)                      ...     -0.914653650
E(CORR)(weak-pairs)                        ...     -0.000636345
E(CORR)(corrected)                         ...     -0.915289995
E(TOT)                                     ...   -230.803188439
E(CCSD(T))                                 ...   -230.842711646
FINAL SINGLE POINT ENERGY      -230.842711645875

DIPOLE MOMENT
-------------
                                X             Y             Z
Electronic contribution:     -2.78260       0.27538       0.00000
Nuclear contribution   :      3.85106      -0.87959       0.00000
                        -----------------------------------------
Total Dipole Moment    :      1.06846      -0.60421       0.00000
                        -----------------------------------------
Magnitude (a.u.)       :      1.22746
Magnitude (Debye)      :      3.11997

Rotational constants in cm-1:     0.339649     0.132032     0.096782
Rotational constants in MHz : 10182.410840  3958.224263  2901.455294

                             ****ORCA TERMINATED NORMALLY****
TOTAL RUN TIME: 0 days 0 hours 4 minutes 28 seconds 554 msec
