                         Program Version 4.1.x  -  STABLE  -
|  1> ! RHF DLPNO-CCSD(T) cc-pVTZ RIJK cc-pVTZ/JK cc-pVTZ/C
|  2> ! KDIIS SOSCF TightSCF TightPNO
|  3>
|  4> %pal nprocs 8 end
|  5>
|  6> %maxcore 8000
|  7>
|  8> %scf maxiter 300
|  9>      shift shift 0.2 erroff 0.1 end
| 10> end
| 11>
| 12> * xyzfile 0 1 butanediamine_gGGG.xyz
| 13>
| 14>
| 15>                          ****END OF INPUT****

CARTESIAN COORDINATES (ANGSTROEM)
---------------------------------
  C      1.622900    0.167390   -0.380800
  C      0.670120    1.213050    0.222020
  C     -0.812080    1.176710   -0.204750
  C     -1.687750    0.034220    0.328420
  N     -1.438220   -1.233740   -0.362930
  N      1.513810   -1.146030    0.281550
  H      2.649080    0.567100   -0.334670
  H      1.384050    0.022710   -1.440940
  H      2.115320   -1.828610   -0.172960
  H      1.820280   -1.081570    1.249940
  H     -2.736100    0.306260    0.154210
  H     -1.558540   -0.026750    1.426190
  H     -2.120180   -1.933490   -0.083350
  H     -0.507040   -1.574910   -0.116270
  H      0.739310    1.165850    1.320010
  H      1.064740    2.199390   -0.055760
  H     -1.262630    2.119440    0.134990
  H     -0.876620    1.174770   -1.301160

 Total Charge           Charge          ....    0
 Multiplicity           Mult            ....    1
 Number of Electrons    NEL             ....   50
 Basis Dimension        Dim             ....  348

ORBITAL ENERGIES
----------------

  NO   OCC          E(Eh)            E(eV)
   0   2.0000     -15.544418      -422.9851
   1   2.0000     -15.504951      -421.9112
   2   2.0000     -11.250195      -306.1334
   3   2.0000     -11.232110      -305.6412
   4   2.0000     -11.219368      -305.2945
   5   2.0000     -11.209788      -305.0338
   6   2.0000      -1.180402       -32.1204
   7   2.0000      -1.146500       -31.1978
   8   2.0000      -1.033408       -28.1204
   9   2.0000      -0.933660       -25.4062
  10   2.0000      -0.835722       -22.7411
  11   2.0000      -0.767162       -20.8755
  12   2.0000      -0.661476       -17.9997
  13   2.0000      -0.653371       -17.7791
  14   2.0000      -0.619353       -16.8534
  15   2.0000      -0.608124       -16.5479
  16   2.0000      -0.579122       -15.7587
  17   2.0000      -0.549685       -14.9577
  18   2.0000      -0.532721       -14.4961
  19   2.0000      -0.513234       -13.9658
  20   2.0000      -0.465135       -12.6570
  21   2.0000      -0.462688       -12.5904
  22   2.0000      -0.450579       -12.2609
  23   2.0000      -0.396086       -10.7780
  24   2.0000      -0.361982        -9.8500
  25   0.0000       0.136638         3.7181
  26   0.0000       0.159181         4.3315
  27   0.0000       0.165110         4.4929
  28   0.0000       0.173588         4.7236
  29   0.0000       0.200034         5.4432

MULLIKEN ATOMIC CHARGES
-----------------------
   0 C :   -0.063314
   1 C :   -0.189786
   2 C :   -0.180174
   3 C :   -0.047968
   4 N :   -0.415520
   5 N :   -0.395773
   6 H :    0.085418
   7 H :    0.098352
   8 H :    0.147542
   9 H :    0.143825
  10 H :    0.087911
  11 H :    0.055335
  12 H :    0.131237
  13 H :    0.170459
  14 H :    0.080874
  15 H :    0.103564
  16 H :    0.096494
  17 H :    0.091523
Sum of atomic charges:   -0.0000000

LOEWDIN ATOMIC CHARGES
----------------------
   0 C :   -0.006893
   1 C :    0.048500
   2 C :    0.050020
   3 C :   -0.021363
   4 N :    0.304267
   5 N :    0.352187
   6 H :   -0.041408
   7 H :   -0.027202
   8 H :   -0.107687
   9 H :   -0.109533
  10 H :   -0.031884
  11 H :   -0.047860
  12 H :   -0.117545
  13 H :   -0.141742
  14 H :   -0.030046
  15 H :   -0.021901
  16 H :   -0.024000
  17 H :   -0.025911

  Mayer bond orders larger than 0.1
B(  0-C ,  1-C ) :   0.9416 B(  0-C ,  5-N ) :   0.9336 B(  0-C ,  6-H ) :   0.9951
B(  0-C ,  7-H ) :   0.9789 B(  1-C ,  2-C ) :   0.9578 B(  1-C , 14-H ) :   0.9827
B(  1-C , 15-H ) :   0.9946 B(  2-C ,  3-C ) :   0.9474 B(  2-C , 16-H ) :   0.9927
B(  2-C , 17-H ) :   0.9766 B(  3-C ,  4-N ) :   0.9912 B(  3-C , 10-H ) :   0.9915
B(  3-C , 11-H ) :   0.9831 B(  4-N , 12-H ) :   0.9940 B(  4-N , 13-H ) :   0.9453
B(  5-N ,  8-H ) :   0.9885 B(  5-N ,  9-H ) :   0.9841

E(0)                                       ...   -267.438079536
E(0)                                       ...   -267.438079536
E(CORR)(strong-pairs)                      ...     -1.197047717
E(CORR)(weak-pairs)                        ...     -0.000996280
E(CORR)(corrected)                         ...     -1.198043997
E(TOT)                                     ...   -268.636123533
E(CCSD(T))                                 ...   -268.681791720
FINAL SINGLE POINT ENERGY      -268.681791720476

DIPOLE MOMENT
-------------
                                X             Y             Z
Electronic contribution:     -0.04485      -1.14182      -0.33160
Nuclear contribution   :      0.75858       1.16772       0.83063
                        -----------------------------------------
Total Dipole Moment    :      0.71373       0.02589       0.49904
                        -----------------------------------------
Magnitude (a.u.)       :      0.87127
Magnitude (Debye)      :      2.21460

Rotational constants in cm-1:     0.147597     0.087611     0.061586
Rotational constants in MHz :  4424.847581  2626.502398  1846.296234

                             ****ORCA TERMINATED NORMALLY****
TOTAL RUN TIME: 0 days 0 hours 6 minutes 17 seconds 222 msec
