                         Program Version 4.1.x  -  STABLE  -
|  1> ! RHF DLPNO-CCSD(T) cc-pVTZ RIJK cc-pVTZ/JK cc-pVTZ/C
|  2> ! KDIIS SOSCF TightSCF TightPNO
|  3>
|  4> %pal nprocs 8 end
|  5>
|  6> %maxcore 8000
|  7>
|  8> %scf maxiter 300
|  9>      shift shift 0.2 erroff 0.1 end
| 10> end
| 11>
| 12> * xyzfile 0 1 butane_ecl.xyz
| 13>
| 14>
| 15>                          ****END OF INPUT****

CARTESIAN COORDINATES (ANGSTROEM)
---------------------------------
  C      1.455600   -0.650020   -0.000000
  C      0.771660    0.723340    0.000000
  C     -0.771650    0.723330    0.000000
  C     -1.455600   -0.650020    0.000000
  H      2.565050   -0.539150   -0.000080
  H      1.189010   -1.241250    0.905620
  H      1.188890   -1.241330   -0.905530
  H      1.137560    1.290920    0.889590
  H      1.137550    1.290900   -0.889610
  H     -1.137540    1.290910    0.889620
  H     -1.137560    1.290920   -0.889590
  H     -2.565050   -0.539140    0.000080
  H     -1.189020   -1.241250   -0.905620
  H     -1.188890   -1.241330    0.905530

 Total Charge           Charge          ....    0
 Multiplicity           Mult            ....    1
 Number of Electrons    NEL             ....   34
 Basis Dimension        Dim             ....  260

ORBITAL ENERGIES
----------------

  NO   OCC          E(Eh)            E(eV)
   0   2.0000     -11.222659      -305.3841
   1   2.0000     -11.222099      -305.3688
   2   2.0000     -11.217558      -305.2453
   3   2.0000     -11.217555      -305.2452
   4   2.0000      -1.061683       -28.8899
   5   2.0000      -0.967361       -26.3232
   6   2.0000      -0.871150       -23.7052
   7   2.0000      -0.758917       -20.6512
   8   2.0000      -0.629180       -17.1209
   9   2.0000      -0.607599       -16.5336
  10   2.0000      -0.558386       -15.1944
  11   2.0000      -0.535997       -14.5852
  12   2.0000      -0.517096       -14.0709
  13   2.0000      -0.509479       -13.8636
  14   2.0000      -0.458847       -12.4859
  15   2.0000      -0.458156       -12.4670
  16   2.0000      -0.438243       -11.9252
  17   0.0000       0.134440         3.6583
  18   0.0000       0.169209         4.6044
  19   0.0000       0.174324         4.7436
  20   0.0000       0.179015         4.8712
  21   0.0000       0.210793         5.7360

MULLIKEN ATOMIC CHARGES
-----------------------
   0 C :   -0.283577
   1 C :   -0.156365
   2 C :   -0.156360
   3 C :   -0.283575
   4 H :    0.101091
   5 H :    0.084539
   6 H :    0.084541
   7 H :    0.084889
   8 H :    0.084885
   9 H :    0.084876
  10 H :    0.084885
  11 H :    0.101092
  12 H :    0.084540
  13 H :    0.084541
Sum of atomic charges:   -0.0000000

LOEWDIN ATOMIC CHARGES
----------------------
   0 C :    0.086946
   1 C :    0.034308
   2 C :    0.034302
   3 C :    0.086944
   4 H :   -0.023503
   5 H :   -0.027239
   6 H :   -0.027239
   7 H :   -0.021637
   8 H :   -0.021637
   9 H :   -0.021630
  10 H :   -0.021635
  11 H :   -0.023501
  12 H :   -0.027240
  13 H :   -0.027238

  Mayer bond orders larger than 0.1
B(  0-C ,  1-C ) :   0.9528 B(  0-C ,  4-H ) :   0.9871 B(  0-C ,  5-H ) :   0.9818
B(  0-C ,  6-H ) :   0.9818 B(  1-C ,  2-C ) :   0.9187 B(  1-C ,  7-H ) :   0.9927
B(  1-C ,  8-H ) :   0.9927 B(  2-C ,  3-C ) :   0.9528 B(  2-C ,  9-H ) :   0.9927
B(  2-C , 10-H ) :   0.9927 B(  3-C , 11-H ) :   0.9871 B(  3-C , 12-H ) :   0.9818
B(  3-C , 13-H ) :   0.9818

E(0)                                       ...   -157.339372458
E(0)                                       ...   -157.339372458
E(CORR)(strong-pairs)                      ...     -0.772939496
E(CORR)(weak-pairs)                        ...     -0.000550225
E(CORR)(corrected)                         ...     -0.773489721
E(TOT)                                     ...   -158.112862179
E(CCSD(T))                                 ...   -158.141223782
FINAL SINGLE POINT ENERGY      -158.141223782207

DIPOLE MOMENT
-------------
                                X             Y             Z
Electronic contribution:      0.00002       0.99653      -0.00001
Nuclear contribution   :     -0.00002      -0.96653       0.00001
                        -----------------------------------------
Total Dipole Moment    :      0.00000       0.03000      -0.00000
                        -----------------------------------------
Magnitude (a.u.)       :      0.03000
Magnitude (Debye)      :      0.07625

Rotational constants in cm-1:     0.394603     0.175820     0.134211
Rotational constants in MHz : 11829.915093  5270.965123  4023.544562

                             ****ORCA TERMINATED NORMALLY****
TOTAL RUN TIME: 0 days 0 hours 2 minutes 7 seconds 263 msec
