                         Program Version 4.1.x  -  STABLE  -
|  1> ! RHF DLPNO-CCSD(T) cc-pVTZ RIJK cc-pVTZ/JK cc-pVTZ/C
|  2> ! KDIIS SOSCF TightSCF TightPNO
|  3>
|  4> %pal nprocs 8 end
|  5>
|  6> %maxcore 8000
|  7>
|  8> %scf maxiter 300
|  9>      shift shift 0.2 erroff 0.1 end
| 10> end
| 11>
| 12> * xyzfile 0 1 Butane_g.xyz
| 13>
| 14>
| 15>                          ****END OF INPUT****

CARTESIAN COORDINATES (ANGSTROEM)
---------------------------------
  C      1.590960   -0.554210    0.124330
  C      0.703480    0.619180   -0.311340
  C     -0.703480    0.619180    0.311330
  C     -1.590950   -0.554220   -0.124320
  H      0.611020    0.620190   -1.406800
  H      1.204240    1.560180   -0.047690
  H     -0.611040    0.620230    1.406800
  H     -1.204240    1.560180    0.047680
  H      2.592510   -0.474100   -0.312400
  H      1.705360   -0.577020    1.215140
  H      1.175380   -1.519020   -0.185490
  H     -2.592510   -0.474100    0.312410
  H     -1.705370   -0.577030   -1.215130
  H     -1.175350   -1.519030    0.185490

 Total Charge           Charge          ....    0
 Multiplicity           Mult            ....    1
 Number of Electrons    NEL             ....   34
 Basis Dimension        Dim             ....  260

ORBITAL ENERGIES
----------------

  NO   OCC          E(Eh)            E(eV)
   0   2.0000     -11.217722      -305.2497
   1   2.0000     -11.217137      -305.2338
   2   2.0000     -11.210545      -305.0544
   3   2.0000     -11.210543      -305.0544
   4   2.0000      -1.065449       -28.9923
   5   2.0000      -0.973446       -26.4888
   6   2.0000      -0.871123       -23.7045
   7   2.0000      -0.774834       -21.0843
   8   2.0000      -0.619933       -16.8692
   9   2.0000      -0.616067       -16.7640
  10   2.0000      -0.571654       -15.5555
  11   2.0000      -0.532134       -14.4801
  12   2.0000      -0.529232       -14.4011
  13   2.0000      -0.502347       -13.6696
  14   2.0000      -0.461607       -12.5610
  15   2.0000      -0.457442       -12.4476
  16   2.0000      -0.455986       -12.4080
  17   0.0000       0.139673         3.8007
  18   0.0000       0.171784         4.6745
  19   0.0000       0.172211         4.6861
  20   0.0000       0.178988         4.8705
  21   0.0000       0.214873         5.8470

MULLIKEN ATOMIC CHARGES
-----------------------
   0 C :   -0.294713
   1 C :   -0.166142
   2 C :   -0.166141
   3 C :   -0.294707
   4 H :    0.085385
   5 H :    0.096008
   6 H :    0.085380
   7 H :    0.096009
   8 H :    0.102964
   9 H :    0.086843
  10 H :    0.089656
  11 H :    0.102960
  12 H :    0.086842
  13 H :    0.089657
Sum of atomic charges:    0.0000000

LOEWDIN ATOMIC CHARGES
----------------------
   0 C :    0.103791
   1 C :    0.045660
   2 C :    0.045655
   3 C :    0.103786
   4 H :   -0.028647
   5 H :   -0.027124
   6 H :   -0.028643
   7 H :   -0.027124
   8 H :   -0.029789
   9 H :   -0.030564
  10 H :   -0.033326
  11 H :   -0.029785
  12 H :   -0.030564
  13 H :   -0.033325

  Mayer bond orders larger than 0.1
B(  0-C ,  1-C ) :   0.9491 B(  0-C ,  8-H ) :   0.9871 B(  0-C ,  9-H ) :   0.9809
B(  0-C , 10-H ) :   0.9820 B(  1-C ,  2-C ) :   0.9536 B(  1-C ,  4-H ) :   0.9833
B(  1-C ,  5-H ) :   0.9902 B(  2-C ,  3-C ) :   0.9491 B(  2-C ,  6-H ) :   0.9833
B(  2-C ,  7-H ) :   0.9902 B(  3-C , 11-H ) :   0.9871 B(  3-C , 12-H ) :   0.9809
B(  3-C , 13-H ) :   0.9820

E(0)                                       ...   -157.353180479
E(0)                                       ...   -157.353180479
E(CORR)(strong-pairs)                      ...     -0.770356702
E(CORR)(weak-pairs)                        ...     -0.000542968
E(CORR)(corrected)                         ...     -0.770899670
E(TOT)                                     ...   -158.124080149
E(CCSD(T))                                 ...   -158.151986688
FINAL SINGLE POINT ENERGY      -158.151986688165

DIPOLE MOMENT
-------------
                                X             Y             Z
Electronic contribution:      0.00002       0.89171      -0.00001
Nuclear contribution   :     -0.00002      -0.85639       0.00001
                        -----------------------------------------
Total Dipole Moment    :      0.00000       0.03532      -0.00001
                        -----------------------------------------
Magnitude (a.u.)       :      0.03532
Magnitude (Debye)      :      0.08977

Rotational constants in cm-1:     0.443938     0.155367     0.133154
Rotational constants in MHz : 13308.920913  4657.777216  3991.854056

                             ****ORCA TERMINATED NORMALLY****
TOTAL RUN TIME: 0 days 0 hours 2 minutes 45 seconds 157 msec
