                         Program Version 4.1.x  -  STABLE  -
|  1> ! RHF DLPNO-CCSD(T) cc-pVTZ RIJK cc-pVTZ/JK cc-pVTZ/C
|  2> ! KDIIS SOSCF TightSCF TightPNO
|  3>
|  4> %pal nprocs 8 end
|  5>
|  6> %maxcore 8000
|  7>
|  8> %scf maxiter 300
|  9>      shift shift 0.2 erroff 0.1 end
| 10> end
| 11>
| 12> * xyzfile 0 1 butane_anti.xyz
| 13>
| 14>
| 15>                          ****END OF INPUT****

CARTESIAN COORDINATES (ANGSTROEM)
---------------------------------
  C      1.951060   -0.123460    0.000000
  C      0.560570    0.525400    0.000000
  C     -0.560580   -0.525400    0.000000
  C     -1.951060    0.123460    0.000000
  H      2.753540    0.650320    0.000000
  H      2.096620   -0.762330    0.901420
  H      2.096620   -0.762330   -0.901420
  H      0.459680    1.179140    0.899230
  H      0.459680    1.179140   -0.899220
  H     -0.459680   -1.179130   -0.899230
  H     -0.459680   -1.179140    0.899220
  H     -2.753540   -0.650320    0.000000
  H     -2.096620    0.762310    0.901430
  H     -2.096630    0.762330   -0.901420

 Total Charge           Charge          ....    0
 Multiplicity           Mult            ....    1
 Number of Electrons    NEL             ....   34
 Basis Dimension        Dim             ....  260

ORBITAL ENERGIES
----------------

  NO   OCC          E(Eh)            E(eV)
   0   2.0000     -11.223168      -305.3979
   1   2.0000     -11.222577      -305.3819
   2   2.0000     -11.217760      -305.2508
   3   2.0000     -11.217755      -305.2506
   4   2.0000      -1.064123       -28.9563
   5   2.0000      -0.972862       -26.4729
   6   2.0000      -0.851237       -23.1633
   7   2.0000      -0.779468       -21.2104
   8   2.0000      -0.632756       -17.2182
   9   2.0000      -0.578432       -15.7399
  10   2.0000      -0.568711       -15.4754
  11   2.0000      -0.561423       -15.2771
  12   2.0000      -0.508749       -13.8438
  13   2.0000      -0.489693       -13.3252
  14   2.0000      -0.467229       -12.7139
  15   2.0000      -0.460048       -12.5185
  16   2.0000      -0.451821       -12.2947
  17   0.0000       0.141473         3.8497
  18   0.0000       0.158146         4.3034
  19   0.0000       0.177216         4.8223
  20   0.0000       0.177950         4.8423
  21   0.0000       0.212163         5.7732

MULLIKEN ATOMIC CHARGES
-----------------------
   0 C :   -0.276888
   1 C :   -0.143668
   2 C :   -0.143666
   3 C :   -0.276888
   4 H :    0.093126
   5 H :    0.082460
   6 H :    0.082460
   7 H :    0.081252
   8 H :    0.081257
   9 H :    0.081254
  10 H :    0.081256
  11 H :    0.093125
  12 H :    0.082461
  13 H :    0.082460
Sum of atomic charges:   -0.0000000

LOEWDIN ATOMIC CHARGES
----------------------
   0 C :    0.089166
   1 C :    0.032414
   2 C :    0.032412
   3 C :    0.089165
   4 H :   -0.025503
   5 H :   -0.025945
   6 H :   -0.025945
   7 H :   -0.022092
   8 H :   -0.022096
   9 H :   -0.022094
  10 H :   -0.022094
  11 H :   -0.025502
  12 H :   -0.025945
  13 H :   -0.025943

  Mayer bond orders larger than 0.1
B(  0-C ,  1-C ) :   0.9592 B(  0-C ,  4-H ) :   0.9883 B(  0-C ,  5-H ) :   0.9823
B(  0-C ,  6-H ) :   0.9823 B(  1-C ,  2-C ) :   0.9568 B(  1-C ,  7-H ) :   0.9820
B(  1-C ,  8-H ) :   0.9820 B(  2-C ,  3-C ) :   0.9592 B(  2-C ,  9-H ) :   0.9820
B(  2-C , 10-H ) :   0.9820 B(  3-C , 11-H ) :   0.9883 B(  3-C , 12-H ) :   0.9823
B(  3-C , 13-H ) :   0.9823

E(0)                                       ...   -157.349872083
E(0)                                       ...   -157.349872083
E(CORR)(strong-pairs)                      ...     -0.771552851
E(CORR)(weak-pairs)                        ...     -0.000542531
E(CORR)(corrected)                         ...     -0.772095382
E(TOT)                                     ...   -158.121967465
E(CCSD(T))                                 ...   -158.150217641
FINAL SINGLE POINT ENERGY      -158.150217641316

DIPOLE MOMENT
-------------
                                X             Y             Z
Electronic contribution:     -0.00001       0.00001      -0.00001
Nuclear contribution   :      0.00001      -0.00001       0.00001
                        -----------------------------------------
Total Dipole Moment    :     -0.00000      -0.00000      -0.00000
                        -----------------------------------------
Magnitude (a.u.)       :      0.00000
Magnitude (Debye)      :      0.00001

Rotational constants in cm-1:     0.754863     0.120936     0.113403
Rotational constants in MHz : 22630.214739  3625.571710  3399.748659

                             ****ORCA TERMINATED NORMALLY****
TOTAL RUN TIME: 0 days 0 hours 2 minutes 1 seconds 489 msec
