                         Program Version 4.1.x  -  STABLE  -
|  1> ! RHF DLPNO-CCSD(T) cc-pVTZ RIJK cc-pVTZ/JK cc-pVTZ/C
|  2> ! KDIIS SOSCF TightSCF TightPNO
|  3>
|  4> %pal nprocs 8 end
|  5>
|  6> %maxcore 8000
|  7>
|  8> %scf maxiter 300
|  9>      shift shift 0.2 erroff 0.1 end
| 10> end
| 11>
| 12> * xyzfile 0 1 Butane_a.xyz
| 13>
| 14>
| 15>                          ****END OF INPUT****

CARTESIAN COORDINATES (ANGSTROEM)
---------------------------------
  C      1.963290    0.121060    0.000020
  C      0.568780   -0.514800    0.000000
  C     -0.568780    0.514840   -0.000010
  C     -1.963270   -0.121080    0.000000
  H      0.464160   -1.167300    0.878060
  H      0.464200   -1.167300   -0.878050
  H     -0.464230    1.167320    0.878060
  H     -0.464240    1.167290   -0.878100
  H      2.750810   -0.640220   -0.000100
  H      2.111260    0.752050   -0.884470
  H      2.111280    0.752030    0.884500
  H     -2.750820    0.640170   -0.000010
  H     -2.111270   -0.752100   -0.884450
  H     -2.111240   -0.752060    0.884500

 Total Charge           Charge          ....    0
 Multiplicity           Mult            ....    1
 Number of Electrons    NEL             ....   34
 Basis Dimension        Dim             ....  260

ORBITAL ENERGIES
----------------

  NO   OCC          E(Eh)            E(eV)
   0   2.0000     -11.217306      -305.2384
   1   2.0000     -11.216710      -305.2222
   2   2.0000     -11.210964      -305.0658
   3   2.0000     -11.210959      -305.0657
   4   2.0000      -1.066112       -29.0104
   5   2.0000      -0.977810       -26.6076
   6   2.0000      -0.859490       -23.3879
   7   2.0000      -0.785800       -21.3827
   8   2.0000      -0.634770       -17.2730
   9   2.0000      -0.581958       -15.8359
  10   2.0000      -0.572574       -15.5805
  11   2.0000      -0.565292       -15.3824
  12   2.0000      -0.513396       -13.9702
  13   2.0000      -0.493843       -13.4381
  14   2.0000      -0.468053       -12.7364
  15   2.0000      -0.460433       -12.5290
  16   2.0000      -0.455924       -12.4063
  17   0.0000       0.142137         3.8677
  18   0.0000       0.159047         4.3279
  19   0.0000       0.178798         4.8653
  20   0.0000       0.180807         4.9200
  21   0.0000       0.212875         5.7926

MULLIKEN ATOMIC CHARGES
-----------------------
   0 C :   -0.289680
   1 C :   -0.154508
   2 C :   -0.154506
   3 C :   -0.289687
   4 H :    0.085449
   5 H :    0.085456
   6 H :    0.085455
   7 H :    0.085457
   8 H :    0.099623
   9 H :    0.086823
  10 H :    0.086838
  11 H :    0.099623
  12 H :    0.086833
  13 H :    0.086825
Sum of atomic charges:   -0.0000000

LOEWDIN ATOMIC CHARGES
----------------------
   0 C :    0.104157
   1 C :    0.044354
   2 C :    0.044363
   3 C :    0.104155
   4 H :   -0.028401
   5 H :   -0.028405
   6 H :   -0.028404
   7 H :   -0.028407
   8 H :   -0.030216
   9 H :   -0.030740
  10 H :   -0.030749
  11 H :   -0.030218
  12 H :   -0.030747
  13 H :   -0.030741

  Mayer bond orders larger than 0.1
B(  0-C ,  1-C ) :   0.9594 B(  0-C ,  8-H ) :   0.9876 B(  0-C ,  9-H ) :   0.9822
B(  0-C , 10-H ) :   0.9822 B(  1-C ,  2-C ) :   0.9565 B(  1-C ,  4-H ) :   0.9822
B(  1-C ,  5-H ) :   0.9822 B(  2-C ,  3-C ) :   0.9594 B(  2-C ,  6-H ) :   0.9822
B(  2-C ,  7-H ) :   0.9822 B(  3-C , 11-H ) :   0.9876 B(  3-C , 12-H ) :   0.9822
B(  3-C , 13-H ) :   0.9822

E(0)                                       ...   -157.354868376
E(0)                                       ...   -157.354868376
E(CORR)(strong-pairs)                      ...     -0.769759789
E(CORR)(weak-pairs)                        ...     -0.000540455
E(CORR)(corrected)                         ...     -0.770300244
E(TOT)                                     ...   -158.125168620
E(CCSD(T))                                 ...   -158.152992570
FINAL SINGLE POINT ENERGY      -158.152992570328

DIPOLE MOMENT
-------------
                                X             Y             Z
Electronic contribution:      0.00011       0.00013       0.00005
Nuclear contribution   :     -0.00011      -0.00013      -0.00007
                        -----------------------------------------
Total Dipole Moment    :      0.00000      -0.00000      -0.00002
                        -----------------------------------------
Magnitude (a.u.)       :      0.00002
Magnitude (Debye)      :      0.00004

Rotational constants in cm-1:     0.781209     0.119790     0.112550
Rotational constants in MHz : 23420.053843  3591.224769  3374.161779

                             ****ORCA TERMINATED NORMALLY****
TOTAL RUN TIME: 0 days 0 hours 3 minutes 57 seconds 236 msec
