                         Program Version 4.1.x  -  STABLE  -
|  1> ! RHF DLPNO-CCSD(T) cc-pVTZ RIJK cc-pVTZ/JK cc-pVTZ/C
|  2> ! KDIIS SOSCF TightSCF TightPNO
|  3>
|  4> %pal nprocs 8 end
|  5>
|  6> %maxcore 8000
|  7>
|  8> %scf maxiter 300
|  9>      shift shift 0.2 erroff 0.1 end
| 10> end
| 11>
| 12> * xyzfile 0 1 butanediamine_tTTTt.xyz
| 13>
| 14>
| 15>                          ****END OF INPUT****

CARTESIAN COORDINATES (ANGSTROEM)
---------------------------------
  C     -1.897850    0.538000   -0.000000
  C     -0.665370   -0.382610   -0.000010
  C      0.665380    0.382620   -0.000000
  C      1.897860   -0.537990    0.000010
  N      3.205180    0.124910   -0.000000
  N     -3.205190   -0.124930   -0.000010
  H     -1.860530    1.196120   -0.877520
  H     -1.860550    1.196080    0.877540
  H     -3.313500   -0.718900    0.818490
  H     -3.313390   -0.719100   -0.818370
  H      1.860520   -1.196110   -0.877500
  H      1.860520   -1.196110    0.877540
  H      3.313460    0.718990   -0.818420
  H      3.313470    0.718990    0.818420
  H     -0.711720   -1.041160    0.879980
  H     -0.711730   -1.041130   -0.880030
  H      0.711720    1.041170   -0.880010
  H      0.711710    1.041170    0.880000

 Total Charge           Charge          ....    0
 Multiplicity           Mult            ....    1
 Number of Electrons    NEL             ....   50
 Basis Dimension        Dim             ....  348

ORBITAL ENERGIES
----------------

  NO   OCC          E(Eh)            E(eV)
   0   2.0000     -15.534869      -422.7253
   1   2.0000     -15.534869      -422.7253
   2   2.0000     -11.247476      -306.0594
   3   2.0000     -11.247474      -306.0593
   4   2.0000     -11.221520      -305.3531
   5   2.0000     -11.220921      -305.3368
   6   2.0000      -1.174603       -31.9626
   7   2.0000      -1.169723       -31.8298
   8   2.0000      -1.044830       -28.4313
   9   2.0000      -0.932331       -25.3700
  10   2.0000      -0.835020       -22.7220
  11   2.0000      -0.798317       -21.7233
  12   2.0000      -0.680149       -18.5078
  13   2.0000      -0.665246       -18.1023
  14   2.0000      -0.605338       -16.4721
  15   2.0000      -0.604828       -16.4582
  16   2.0000      -0.586198       -15.9513
  17   2.0000      -0.539127       -14.6704
  18   2.0000      -0.536459       -14.5978
  19   2.0000      -0.532457       -14.4889
  20   2.0000      -0.485323       -13.2063
  21   2.0000      -0.478421       -13.0185
  22   2.0000      -0.467598       -12.7240
  23   2.0000      -0.399725       -10.8771
  24   2.0000      -0.371288       -10.1033
  25   0.0000       0.137075         3.7300
  26   0.0000       0.143646         3.9088
  27   0.0000       0.160651         4.3715
  28   0.0000       0.166163         4.5215
  29   0.0000       0.173544         4.7224

MULLIKEN ATOMIC CHARGES
-----------------------
   0 C :   -0.051312
   1 C :   -0.184123
   2 C :   -0.184121
   3 C :   -0.051305
   4 N :   -0.380475
   5 N :   -0.380485
   6 H :    0.092059
   7 H :    0.092061
   8 H :    0.136220
   9 H :    0.136220
  10 H :    0.092061
  11 H :    0.092053
  12 H :    0.136219
  13 H :    0.136218
  14 H :    0.079681
  15 H :    0.079677
  16 H :    0.079674
  17 H :    0.079678
Sum of atomic charges:    0.0000000

LOEWDIN ATOMIC CHARGES
----------------------
   0 C :   -0.018870
   1 C :    0.041453
   2 C :    0.041450
   3 C :   -0.018894
   4 N :    0.317526
   5 N :    0.317519
   6 H :   -0.029620
   7 H :   -0.029623
   8 H :   -0.109381
   9 H :   -0.109389
  10 H :   -0.029622
  11 H :   -0.029614
  12 H :   -0.109380
  13 H :   -0.109379
  14 H :   -0.031047
  15 H :   -0.031044
  16 H :   -0.031041
  17 H :   -0.031045

  Mayer bond orders larger than 0.1
B(  0-C ,  1-C ) :   0.9669 B(  0-C ,  5-N ) :   0.9929 B(  0-C ,  6-H ) :   0.9865
B(  0-C ,  7-H ) :   0.9865 B(  1-C ,  2-C ) :   0.9606 B(  1-C , 14-H ) :   0.9775
B(  1-C , 15-H ) :   0.9775 B(  2-C ,  3-C ) :   0.9669 B(  2-C , 16-H ) :   0.9775
B(  2-C , 17-H ) :   0.9775 B(  3-C ,  4-N ) :   0.9929 B(  3-C , 10-H ) :   0.9865
B(  3-C , 11-H ) :   0.9865 B(  4-N , 12-H ) :   0.9971 B(  4-N , 13-H ) :   0.9971
B(  5-N ,  8-H ) :   0.9971 B(  5-N ,  9-H ) :   0.9971

E(0)                                       ...   -267.442191792
E(0)                                       ...   -267.442191792
E(CORR)(strong-pairs)                      ...     -1.193523702
E(CORR)(weak-pairs)                        ...     -0.001031578
E(CORR)(corrected)                         ...     -1.194555280
E(TOT)                                     ...   -268.636747072
E(CCSD(T))                                 ...   -268.681892464
FINAL SINGLE POINT ENERGY      -268.681892463668

DIPOLE MOMENT
-------------
                                X             Y             Z
Electronic contribution:      0.00008       0.00000      -0.00003
Nuclear contribution   :     -0.00003       0.00001       0.00011
                        -----------------------------------------
Total Dipole Moment    :      0.00005       0.00002       0.00008
                        -----------------------------------------
Magnitude (a.u.)       :      0.00010
Magnitude (Debye)      :      0.00025

Rotational constants in cm-1:     0.526341     0.037117     0.035994
Rotational constants in MHz : 15779.317261  1112.735560  1079.064728

                             ****ORCA TERMINATED NORMALLY****
TOTAL RUN TIME: 0 days 0 hours 5 minutes 47 seconds 168 msec
