                         Program Version 4.1.x  -  STABLE  -
|  1> ! RHF DLPNO-CCSD(T) cc-pVTZ RIJK cc-pVTZ/JK cc-pVTZ/C
|  2> ! KDIIS SOSCF TightSCF TightPNO
|  3>
|  4> %pal nprocs 8 end
|  5>
|  6> %maxcore 8000
|  7>
|  8> %scf maxiter 300
|  9>      shift shift 0.2 erroff 0.1 end
| 10> end
| 11>
| 12> * xyzfile 0 1 C_Et_glycoside_a.xyz
| 13>
| 14>
| 15>                          ****END OF INPUT****

CARTESIAN COORDINATES (ANGSTROEM)
---------------------------------
  C      1.111930   -0.865180   -0.506840
  O     -0.251500   -1.328340   -0.547880
  C     -1.150560   -0.739020    0.387150
  C     -1.216070    0.786470    0.185520
  C      0.188900    1.383130    0.193700
  C      1.102590    0.650740   -0.786390
  C     -2.503900   -1.417800    0.218430
  O     -3.058330   -1.058170   -1.043390
  O     -2.038760    1.435780    1.165010
  O      0.183960    2.759590   -0.185360
  O      2.430450    1.161230   -0.726190
  C      1.851100   -1.325920    0.766170
  C      3.359880   -1.526140    0.563490
  H     -0.815690   -0.948490    1.420680
  H     -1.698760    0.993930   -0.772670
  H      0.611470    1.292310    1.209420
  H      0.689990    0.797730   -1.795340
  H      1.574190   -1.363460   -1.365110
  H      1.396730   -2.280930    1.058820
  H      1.688410   -0.629180    1.597000
  H     -2.349760   -2.503150    0.288260
  H     -1.694200    1.235470    2.047920
  H     -0.526460    3.201200    0.302140
  H      2.371540    2.121120   -0.838580
  H      3.825560   -1.891320    1.485190
  H      3.552300   -2.267260   -0.221380
  H      3.847130   -0.592590    0.274660
  H     -3.903870   -1.508240   -1.156170
  H     -3.158400   -1.095530    1.040180

 Total Charge           Charge          ....    0
 Multiplicity           Mult            ....    1
 Number of Electrons    NEL             ....  104
 Basis Dimension        Dim             ....  614

ORBITAL ENERGIES
----------------

  NO   OCC          E(Eh)            E(eV)
   0   2.0000     -20.573401      -559.8307
   1   2.0000     -20.562647      -559.5381
   2   2.0000     -20.557528      -559.3988
   3   2.0000     -20.556087      -559.3596
   4   2.0000     -20.554866      -559.3263
   5   2.0000     -11.291943      -307.2694
   6   2.0000     -11.286033      -307.1086
   7   2.0000     -11.285361      -307.0903
   8   2.0000     -11.283178      -307.0309
   9   2.0000     -11.282042      -307.0000
  10   2.0000     -11.281725      -306.9913
  11   2.0000     -11.223816      -305.4156
  12   2.0000     -11.208394      -304.9959
  13   2.0000      -1.392194       -37.8835
  14   2.0000      -1.373711       -37.3806
  15   2.0000      -1.366857       -37.1941
  16   2.0000      -1.353381       -36.8274
  17   2.0000      -1.346390       -36.6371
  18   2.0000      -1.068548       -29.0767
  19   2.0000      -1.054108       -28.6837
  20   2.0000      -1.009925       -27.4815
  21   2.0000      -0.933248       -25.3950
  22   2.0000      -0.880775       -23.9671
  23   2.0000      -0.842166       -22.9165
  24   2.0000      -0.825084       -22.4517
  25   2.0000      -0.768564       -20.9137
  26   2.0000      -0.724334       -19.7101
  27   2.0000      -0.709595       -19.3091
  28   2.0000      -0.701114       -19.0783
  29   2.0000      -0.673206       -18.3189
  30   2.0000      -0.656541       -17.8654
  31   2.0000      -0.650373       -17.6975
  32   2.0000      -0.628959       -17.1148
  33   2.0000      -0.616411       -16.7734
  34   2.0000      -0.614472       -16.7206
  35   2.0000      -0.595979       -16.2174
  36   2.0000      -0.585996       -15.9457
  37   2.0000      -0.563170       -15.3246
  38   2.0000      -0.552158       -15.0250
  39   2.0000      -0.547806       -14.9066
  40   2.0000      -0.542265       -14.7558
  41   2.0000      -0.528532       -14.3821
  42   2.0000      -0.511515       -13.9190
  43   2.0000      -0.507133       -13.7998
  44   2.0000      -0.501123       -13.6362
  45   2.0000      -0.485172       -13.2022
  46   2.0000      -0.465140       -12.6571
  47   2.0000      -0.455176       -12.3860
  48   2.0000      -0.449582       -12.2337
  49   2.0000      -0.434143       -11.8136
  50   2.0000      -0.430397       -11.7117
  51   2.0000      -0.410107       -11.1596
  52   0.0000       0.123436         3.3589
  53   0.0000       0.144046         3.9197
  54   0.0000       0.152279         4.1437
  55   0.0000       0.156271         4.2524
  56   0.0000       0.175654         4.7798

MULLIKEN ATOMIC CHARGES
-----------------------
   0 C :    0.103828
   1 O :   -0.416840
   2 C :    0.091718
   3 C :    0.083393
   4 C :    0.114498
   5 C :    0.106276
   6 C :    0.071789
   7 O :   -0.407392
   8 O :   -0.452029
   9 O :   -0.448201
  10 O :   -0.438114
  11 C :   -0.201695
  12 C :   -0.295043
  13 H :    0.076824
  14 H :    0.139660
  15 H :    0.077060
  16 H :    0.109964
  17 H :    0.121998
  18 H :    0.111903
  19 H :    0.084262
  20 H :    0.081200
  21 H :    0.224467
  22 H :    0.240283
  23 H :    0.241553
  24 H :    0.094880
  25 H :    0.084896
  26 H :    0.116775
  27 H :    0.219709
  28 H :    0.062378
Sum of atomic charges:   -0.0000000

LOEWDIN ATOMIC CHARGES
----------------------
   0 C :   -0.105263
   1 O :    0.271380
   2 C :   -0.142361
   3 C :   -0.112185
   4 C :   -0.136031
   5 C :   -0.119645
   6 C :   -0.036737
   7 O :    0.325262
   8 O :    0.323327
   9 O :    0.321140
  10 O :    0.331547
  11 C :    0.049715
  12 C :    0.111210
  13 H :   -0.030918
  14 H :   -0.014886
  15 H :   -0.035043
  16 H :   -0.022316
  17 H :   -0.016352
  18 H :   -0.023089
  19 H :   -0.035400
  20 H :   -0.032967
  21 H :   -0.191327
  22 H :   -0.181489
  23 H :   -0.179738
  24 H :   -0.031188
  25 H :   -0.030743
  26 H :   -0.029943
  27 H :   -0.189814
  28 H :   -0.036148

  Mayer bond orders larger than 0.1
B(  0-C ,  1-O ) :   0.9807 B(  0-C ,  5-C ) :   0.9568 B(  0-C , 11-C ) :   0.9493
B(  0-C , 17-H ) :   0.9866 B(  1-O ,  2-C ) :   0.9654 B(  2-C ,  3-C ) :   0.9534
B(  2-C ,  6-C ) :   0.9780 B(  2-C , 13-H ) :   0.9715 B(  3-C ,  4-C ) :   0.9884
B(  3-C ,  8-O ) :   0.9259 B(  3-C , 14-H ) :   0.9549 B(  4-C ,  5-C ) :   0.9508
B(  4-C ,  9-O ) :   0.9793 B(  4-C , 15-H ) :   0.9658 B(  5-C , 10-O ) :   0.9889
B(  5-C , 16-H ) :   0.9917 B(  6-C ,  7-O ) :   1.0066 B(  6-C , 20-H ) :   0.9837
B(  6-C , 28-H ) :   0.9733 B(  7-O , 27-H ) :   0.9930 B(  8-O , 21-H ) :   0.9821
B(  9-O , 22-H ) :   0.9726 B( 10-O , 23-H ) :   0.9663 B( 11-C , 12-C ) :   0.9550
B( 11-C , 18-H ) :   0.9845 B( 11-C , 19-H ) :   0.9763 B( 12-C , 24-H ) :   0.9851
B( 12-C , 25-H ) :   0.9850 B( 12-C , 26-H ) :   0.9727

E(0)                                       ...   -686.795032802
E(0)                                       ...   -686.795032802
E(CORR)(strong-pairs)                      ...     -2.626235987
E(CORR)(weak-pairs)                        ...     -0.003662835
E(CORR)(corrected)                         ...     -2.629898823
E(TOT)                                     ...   -689.424931625
E(CCSD(T))                                 ...   -689.527658143
FINAL SINGLE POINT ENERGY      -689.527658143325

DIPOLE MOMENT
-------------
                                X             Y             Z
Electronic contribution:     -6.01933       5.14422      -3.52075
Nuclear contribution   :      5.45389      -5.47877       4.62759
                        -----------------------------------------
Total Dipole Moment    :     -0.56544      -0.33455       1.10685
                        -----------------------------------------
Magnitude (a.u.)       :      1.28715
Magnitude (Debye)      :      3.27168

Rotational constants in cm-1:     0.034133     0.020508     0.015112
Rotational constants in MHz :  1023.287336   614.823226   453.053839

                             ****ORCA TERMINATED NORMALLY****
TOTAL RUN TIME: 0 days 1 hours 9 minutes 21 seconds 145 msec
