                         Program Version 4.1.x  -  STABLE  -
|  1> ! RHF DLPNO-CCSD(T) cc-pVTZ RIJK cc-pVTZ/JK cc-pVTZ/C
|  2> ! KDIIS SOSCF TightSCF TightPNO
|  3>
|  4> %pal nprocs 8 end
|  5>
|  6> %maxcore 8000
|  7>
|  8> %scf maxiter 300
|  9>      shift shift 0.2 erroff 0.1 end
| 10> end
| 11>
| 12> * xyzfile 0 1 C_Et_glycoside_g.xyz
| 13>
| 14>
| 15>                          ****END OF INPUT****

CARTESIAN COORDINATES (ANGSTROEM)
---------------------------------
  C      1.274140   -0.627260   -0.580880
  O     -0.046320   -1.196800   -0.644330
  C     -0.988840   -0.728720    0.316230
  C     -1.156010    0.800340    0.222240
  C      0.202920    1.495990    0.274130
  C      1.155640    0.898180   -0.757250
  C     -2.294000   -1.479760    0.083210
  O     -2.857520   -1.071840   -1.159760
  O     -2.020590    1.318470    1.243100
  O      0.094090    2.890910   -0.008020
  O      2.452160    1.479390   -0.669270
  C      2.073630   -1.081750    0.648040
  C      2.275380   -2.600630    0.691430
  H     -0.653580   -0.986110    1.338550
  H     -1.654880    1.042020   -0.719600
  H      0.639310    1.364930    1.279650
  H      0.726760    1.086150   -1.752530
  H      1.769770   -1.027410   -1.471890
  H      1.589900   -0.746160    1.574070
  H      3.040500   -0.569310    0.611710
  H     -2.071520   -2.555440    0.082930
  H     -1.657880    1.085030    2.110450
  H     -0.648010    3.242680    0.504720
  H      2.343010    2.439030   -0.734110
  H      2.856280   -2.892910    1.572480
  H      1.318460   -3.130910    0.722420
  H      2.816640   -2.949770   -0.195650
  H     -3.670880   -1.566360   -1.314960
  H     -2.975450   -1.254830    0.915280

 Total Charge           Charge          ....    0
 Multiplicity           Mult            ....    1
 Number of Electrons    NEL             ....  104
 Basis Dimension        Dim             ....  614

ORBITAL ENERGIES
----------------

  NO   OCC          E(Eh)            E(eV)
   0   2.0000     -20.573547      -559.8347
   1   2.0000     -20.561968      -559.5196
   2   2.0000     -20.558065      -559.4134
   3   2.0000     -20.556234      -559.3636
   4   2.0000     -20.554279      -559.3104
   5   2.0000     -11.292363      -307.2808
   6   2.0000     -11.286246      -307.1144
   7   2.0000     -11.285195      -307.0858
   8   2.0000     -11.282293      -307.0068
   9   2.0000     -11.281902      -306.9962
  10   2.0000     -11.281187      -306.9767
  11   2.0000     -11.221791      -305.3605
  12   2.0000     -11.213832      -305.1439
  13   2.0000      -1.392047       -37.8795
  14   2.0000      -1.373770       -37.3822
  15   2.0000      -1.366415       -37.1820
  16   2.0000      -1.353516       -36.8311
  17   2.0000      -1.346080       -36.6287
  18   2.0000      -1.070015       -29.1166
  19   2.0000      -1.054153       -28.6850
  20   2.0000      -1.011104       -27.5135
  21   2.0000      -0.935997       -25.4698
  22   2.0000      -0.883261       -24.0348
  23   2.0000      -0.837873       -22.7997
  24   2.0000      -0.826554       -22.4917
  25   2.0000      -0.769583       -20.9414
  26   2.0000      -0.722628       -19.6637
  27   2.0000      -0.709800       -19.3146
  28   2.0000      -0.700408       -19.0591
  29   2.0000      -0.674065       -18.3422
  30   2.0000      -0.656657       -17.8685
  31   2.0000      -0.646700       -17.5976
  32   2.0000      -0.636706       -17.3256
  33   2.0000      -0.616894       -16.7865
  34   2.0000      -0.611983       -16.6529
  35   2.0000      -0.597269       -16.2525
  36   2.0000      -0.585672       -15.9369
  37   2.0000      -0.569463       -15.4959
  38   2.0000      -0.549128       -14.9425
  39   2.0000      -0.547386       -14.8951
  40   2.0000      -0.540634       -14.7114
  41   2.0000      -0.530019       -14.4226
  42   2.0000      -0.514307       -13.9950
  43   2.0000      -0.508216       -13.8293
  44   2.0000      -0.500272       -13.6131
  45   2.0000      -0.486096       -13.2274
  46   2.0000      -0.463733       -12.6188
  47   2.0000      -0.459628       -12.5071
  48   2.0000      -0.449708       -12.2372
  49   2.0000      -0.434330       -11.8187
  50   2.0000      -0.429314       -11.6822
  51   2.0000      -0.410831       -11.1793
  52   0.0000       0.121997         3.3197
  53   0.0000       0.141230         3.8431
  54   0.0000       0.150675         4.1001
  55   0.0000       0.158006         4.2996
  56   0.0000       0.174950         4.7606

MULLIKEN ATOMIC CHARGES
-----------------------
   0 C :    0.110862
   1 O :   -0.423062
   2 C :    0.082587
   3 C :    0.085975
   4 C :    0.117473
   5 C :    0.105291
   6 C :    0.070825
   7 O :   -0.407856
   8 O :   -0.452229
   9 O :   -0.447026
  10 O :   -0.440930
  11 C :   -0.204140
  12 C :   -0.293947
  13 H :    0.079501
  14 H :    0.139617
  15 H :    0.077341
  16 H :    0.110871
  17 H :    0.117129
  18 H :    0.075896
  19 H :    0.133956
  20 H :    0.081282
  21 H :    0.224621
  22 H :    0.240285
  23 H :    0.242881
  24 H :    0.099842
  25 H :    0.097671
  26 H :    0.092135
  27 H :    0.219895
  28 H :    0.063255
Sum of atomic charges:    0.0000000

LOEWDIN ATOMIC CHARGES
----------------------
   0 C :   -0.110345
   1 O :    0.273009
   2 C :   -0.142148
   3 C :   -0.111320
   4 C :   -0.136025
   5 C :   -0.119419
   6 C :   -0.036629
   7 O :    0.325326
   8 O :    0.323419
   9 O :    0.320990
  10 O :    0.328385
  11 C :    0.048800
  12 C :    0.109076
  13 H :   -0.032269
  14 H :   -0.014984
  15 H :   -0.033887
  16 H :   -0.022173
  17 H :   -0.014888
  18 H :   -0.037550
  19 H :   -0.017311
  20 H :   -0.033189
  21 H :   -0.191339
  22 H :   -0.181781
  23 H :   -0.179373
  24 H :   -0.029895
  25 H :   -0.031119
  26 H :   -0.027480
  27 H :   -0.189846
  28 H :   -0.036035

  Mayer bond orders larger than 0.1
B(  0-C ,  1-O ) :   0.9576 B(  0-C ,  5-C ) :   0.9700 B(  0-C , 11-C ) :   0.9493
B(  0-C , 17-H ) :   0.9869 B(  1-O ,  2-C ) :   0.9653 B(  2-C ,  3-C ) :   0.9565
B(  2-C ,  6-C ) :   0.9780 B(  2-C , 13-H ) :   0.9714 B(  3-C ,  4-C ) :   0.9888
B(  3-C ,  8-O ) :   0.9255 B(  3-C , 14-H ) :   0.9544 B(  4-C ,  5-C ) :   0.9509
B(  4-C ,  9-O ) :   0.9837 B(  4-C , 15-H ) :   0.9659 B(  5-C , 10-O ) :   0.9858
B(  5-C , 16-H ) :   0.9935 B(  6-C ,  7-O ) :   1.0061 B(  6-C , 20-H ) :   0.9828
B(  6-C , 28-H ) :   0.9751 B(  7-O , 27-H ) :   0.9929 B(  8-O , 21-H ) :   0.9820
B(  9-O , 22-H ) :   0.9723 B( 10-O , 23-H ) :   0.9683 B( 11-C , 12-C ) :   0.9585
B( 11-C , 18-H ) :   0.9775 B( 11-C , 19-H ) :   0.9669 B( 12-C , 24-H ) :   0.9879
B( 12-C , 25-H ) :   0.9780 B( 12-C , 26-H ) :   0.9837

E(0)                                       ...   -686.797770542
E(0)                                       ...   -686.797770542
E(CORR)(strong-pairs)                      ...     -2.625992929
E(CORR)(weak-pairs)                        ...     -0.003656062
E(CORR)(corrected)                         ...     -2.629648990
E(TOT)                                     ...   -689.427419533
E(CCSD(T))                                 ...   -689.530096491
FINAL SINGLE POINT ENERGY      -689.530096490956

DIPOLE MOMENT
-------------
                                X             Y             Z
Electronic contribution:     -4.32764       7.03204      -3.51847
Nuclear contribution   :      3.79126      -7.48458       4.57681
                        -----------------------------------------
Total Dipole Moment    :     -0.53638      -0.45253       1.05834
                        -----------------------------------------
Magnitude (a.u.)       :      1.26987
Magnitude (Debye)      :      3.22776

Rotational constants in cm-1:     0.028861     0.023617     0.015565
Rotational constants in MHz :   865.225062   708.019907   466.624807

                             ****ORCA TERMINATED NORMALLY****
TOTAL RUN TIME: 0 days 1 hours 24 minutes 32 seconds 917 msec
