                         Program Version 4.1.x  -  STABLE  -
|  1> ! RHF DLPNO-CCSD(T) cc-pVTZ RIJK cc-pVTZ/JK cc-pVTZ/C
|  2> ! KDIIS SOSCF TightSCF TightPNO
|  3>
|  4> %pal nprocs 8 end
|  5>
|  6> %maxcore 8000
|  7>
|  8> %scf maxiter 300
|  9>      shift shift 0.2 erroff 0.1 end
| 10> end
| 11>
| 12> * xyzfile 0 1 chlorocyclohexane_ax.xyz
| 13>
| 14>
| 15>                          ****END OF INPUT****

CARTESIAN COORDINATES (ANGSTROEM)
---------------------------------
  C     -0.694900    0.000010    0.827290
  C      0.155060   -1.271960    0.765100
  C      1.152630   -1.270630   -0.403600
  C      2.018130    0.000000   -0.403560
  C      1.152620    1.270640   -0.403610
  C      0.155050    1.271960    0.765100
  Cl    -1.933170   -0.000010   -0.548460
  H      1.785570   -2.163950   -0.343310
  H      0.600400   -1.338990   -1.349070
  H      2.687570    0.000000   -1.272140
  H      2.663340    0.000000    0.487800
  H      0.600390    1.338990   -1.349080
  H      1.785560    2.163950   -0.343320
  H      0.708540   -1.321860    1.715250
  H     -0.493620   -2.153120    0.729930
  H     -0.493630    2.153110    0.729920
  H      0.708530    1.321870    1.715250
  H     -1.320340    0.000010    1.722270

 Total Charge           Charge          ....    0
 Multiplicity           Mult            ....    1
 Number of Electrons    NEL             ....   64
 Basis Dimension        Dim             ....  368

ORBITAL ENERGIES
----------------

  NO   OCC          E(Eh)            E(eV)
   0   2.0000    -104.806909     -2851.9410
   1   2.0000     -11.297759      -307.4277
   2   2.0000     -11.234699      -305.7117
   3   2.0000     -11.234684      -305.7113
   4   2.0000     -11.224072      -305.4225
   5   2.0000     -11.223601      -305.4097
   6   2.0000     -11.223227      -305.3995
   7   2.0000     -10.532055      -286.5918
   8   2.0000      -7.998690      -217.6554
   9   2.0000      -7.997170      -217.6141
  10   2.0000      -7.997146      -217.6134
  11   2.0000      -1.149038       -31.2669
  12   2.0000      -1.071904       -29.1680
  13   2.0000      -1.013821       -27.5875
  14   2.0000      -0.985082       -26.8054
  15   2.0000      -0.844738       -22.9865
  16   2.0000      -0.830646       -22.6030
  17   2.0000      -0.740728       -20.1562
  18   2.0000      -0.668577       -18.1929
  19   2.0000      -0.623702       -16.9718
  20   2.0000      -0.613410       -16.6917
  21   2.0000      -0.592223       -16.1152
  22   2.0000      -0.552272       -15.0281
  23   2.0000      -0.542540       -14.7633
  24   2.0000      -0.535796       -14.5797
  25   2.0000      -0.495362       -13.4795
  26   2.0000      -0.489828       -13.3289
  27   2.0000      -0.461068       -12.5463
  28   2.0000      -0.450779       -12.2663
  29   2.0000      -0.450733       -12.2651
  30   2.0000      -0.419694       -11.4205
  31   2.0000      -0.417727       -11.3669
  32   0.0000       0.130424         3.5490
  33   0.0000       0.155190         4.2229
  34   0.0000       0.161103         4.3838
  35   0.0000       0.166947         4.5429
  36   0.0000       0.193913         5.2767

MULLIKEN ATOMIC CHARGES
-----------------------
   0 C :   -0.019569
   1 C :   -0.184676
   2 C :   -0.198437
   3 C :   -0.198612
   4 C :   -0.198445
   5 C :   -0.184678
   6 Cl:   -0.258918
   7 H :    0.113055
   8 H :    0.109351
   9 H :    0.112247
  10 H :    0.085404
  11 H :    0.109352
  12 H :    0.113059
  13 H :    0.100287
  14 H :    0.123973
  15 H :    0.123975
  16 H :    0.100289
  17 H :    0.152344
Sum of atomic charges:   -0.0000000

LOEWDIN ATOMIC CHARGES
----------------------
   0 C :   -0.135053
   1 C :    0.042837
   2 C :    0.060138
   3 C :    0.057760
   4 C :    0.060149
   5 C :    0.042833
   6 Cl:    0.137539
   7 H :   -0.025323
   8 H :   -0.025020
   9 H :   -0.025177
  10 H :   -0.028055
  11 H :   -0.025021
  12 H :   -0.025328
  13 H :   -0.018713
  14 H :   -0.021089
  15 H :   -0.021092
  16 H :   -0.018710
  17 H :   -0.032676

  Mayer bond orders larger than 0.1
B(  0-C ,  1-C ) :   0.9448 B(  0-C ,  5-C ) :   0.9448 B(  0-C ,  6-Cl) :   0.9329
B(  0-C , 17-H ) :   0.9928 B(  1-C ,  2-C ) :   0.9471 B(  1-C , 13-H ) :   0.9791
B(  1-C , 14-H ) :   0.9870 B(  2-C ,  3-C ) :   0.9477 B(  2-C ,  7-H ) :   0.9928
B(  2-C ,  8-H ) :   0.9781 B(  3-C ,  4-C ) :   0.9477 B(  3-C ,  9-H ) :   0.9937
B(  3-C , 10-H ) :   0.9858 B(  4-C ,  5-C ) :   0.9471 B(  4-C , 11-H ) :   0.9781
B(  4-C , 12-H ) :   0.9928 B(  5-C , 15-H ) :   0.9870 B(  5-C , 16-H ) :   0.9791

E(0)                                       ...   -693.226055344
E(0)                                       ...   -693.226055344
E(CORR)(strong-pairs)                      ...     -1.291700115
E(CORR)(weak-pairs)                        ...     -0.001261108
E(CORR)(corrected)                         ...     -1.292961224
E(TOT)                                     ...   -694.519016568
E(CCSD(T))                                 ...   -694.572227661
FINAL SINGLE POINT ENERGY      -694.572227661001

DIPOLE MOMENT
-------------
                                X             Y             Z
Electronic contribution:    -11.38832      -0.00002      -2.65482
Nuclear contribution   :     12.15882       0.00003       3.27142
                        -----------------------------------------
Total Dipole Moment    :      0.77050       0.00001       0.61661
                        -----------------------------------------
Magnitude (a.u.)       :      0.98685
Magnitude (Debye)      :      2.50838

Rotational constants in cm-1:     0.106803     0.056597     0.048559
Rotational constants in MHz :  3201.877425  1696.739614  1455.759134

                             ****ORCA TERMINATED NORMALLY****
TOTAL RUN TIME: 0 days 0 hours 11 minutes 6 seconds 395 msec
