                         Program Version 4.1.x  -  STABLE  -
|  1> ! RHF DLPNO-CCSD(T) cc-pVTZ RIJK cc-pVTZ/JK cc-pVTZ/C
|  2> ! KDIIS SOSCF TightSCF TightPNO
|  3>
|  4> %pal nprocs 8 end
|  5>
|  6> %maxcore 8000
|  7>
|  8> %scf maxiter 300
|  9>      shift shift 0.2 erroff 0.1 end
| 10> end
| 11>
| 12> * xyzfile 0 1 chloropropane_a.xyz
| 13>
| 14>
| 15>                          ****END OF INPUT****

CARTESIAN COORDINATES (ANGSTROEM)
---------------------------------
  C     -0.069790    0.583590    0.000010
  Cl    -1.759420   -0.096230   -0.000000
  C      0.985350   -0.514920    0.000000
  C      2.403250    0.073000   -0.000010
  H      0.001710    1.214250    0.888720
  H      0.001740    1.214260   -0.888700
  H      0.841040   -1.151810    0.879880
  H      0.841020   -1.151840   -0.879830
  H      3.151020   -0.726320   -0.000010
  H      2.580350    0.693670   -0.885700
  H      2.580400    0.693640    0.885690

 Total Charge           Charge          ....    0
 Multiplicity           Mult            ....    1
 Number of Electrons    NEL             ....   42
 Basis Dimension        Dim             ....  222

ORBITAL ENERGIES
----------------

  NO   OCC          E(Eh)            E(eV)
   0   2.0000    -104.814998     -2852.1611
   1   2.0000     -11.294365      -307.3353
   2   2.0000     -11.240141      -305.8598
   3   2.0000     -11.230100      -305.5866
   4   2.0000     -10.539955      -286.8068
   5   2.0000      -8.006683      -217.8729
   6   2.0000      -8.005023      -217.8278
   7   2.0000      -8.005003      -217.8272
   8   2.0000      -1.129540       -30.7363
   9   2.0000      -1.042111       -28.3573
  10   2.0000      -0.912337       -24.8259
  11   2.0000      -0.818040       -22.2600
  12   2.0000      -0.660541       -17.9742
  13   2.0000      -0.601248       -16.3608
  14   2.0000      -0.575947       -15.6723
  15   2.0000      -0.573449       -15.6043
  16   2.0000      -0.511455       -13.9174
  17   2.0000      -0.495357       -13.4794
  18   2.0000      -0.492310       -13.3964
  19   2.0000      -0.428575       -11.6621
  20   2.0000      -0.427043       -11.6204
  21   0.0000       0.127353         3.4655
  22   0.0000       0.169841         4.6216
  23   0.0000       0.175338         4.7712
  24   0.0000       0.182107         4.9554
  25   0.0000       0.196450         5.3457

MULLIKEN ATOMIC CHARGES
-----------------------
   0 C :   -0.057668
   1 Cl:   -0.238710
   2 C :   -0.155399
   3 C :   -0.295243
   4 H :    0.121752
   5 H :    0.121745
   6 H :    0.106486
   7 H :    0.106501
   8 H :    0.108570
   9 H :    0.090982
  10 H :    0.090984
Sum of atomic charges:   -0.0000000

LOEWDIN ATOMIC CHARGES
----------------------
   0 C :   -0.088113
   1 Cl:    0.151428
   2 C :    0.026579
   3 C :    0.110469
   4 H :   -0.036657
   5 H :   -0.036653
   6 H :   -0.022543
   7 H :   -0.022552
   8 H :   -0.024567
   9 H :   -0.028696
  10 H :   -0.028696

  Mayer bond orders larger than 0.1
B(  0-C ,  1-Cl) :   0.9503 B(  0-C ,  2-C ) :   0.9595 B(  0-C ,  4-H ) :   0.9752
B(  0-C ,  5-H ) :   0.9752 B(  2-C ,  3-C ) :   0.9487 B(  2-C ,  6-H ) :   0.9771
B(  2-C ,  7-H ) :   0.9771 B(  3-C ,  8-H ) :   0.9835 B(  3-C ,  9-H ) :   0.9798
B(  3-C , 10-H ) :   0.9798

E(0)                                       ...   -577.246292103
E(0)                                       ...   -577.246292103
E(CORR)(strong-pairs)                      ...     -0.771642533
E(CORR)(weak-pairs)                        ...     -0.000467847
E(CORR)(corrected)                         ...     -0.772110380
E(TOT)                                     ...   -578.018402484
E(CCSD(T))                                 ...   -578.047871287
FINAL SINGLE POINT ENERGY      -578.047871287282

DIPOLE MOMENT
-------------
                                X             Y             Z
Electronic contribution:    -11.61929      -0.67829      -0.00004
Nuclear contribution   :     12.56811       0.92749       0.00004
                        -----------------------------------------
Total Dipole Moment    :      0.94882       0.24920       0.00001
                        -----------------------------------------
Magnitude (a.u.)       :      0.98100
Magnitude (Debye)      :      2.49350

Rotational constants in cm-1:     0.862840     0.077165     0.073765
Rotational constants in MHz : 25867.301843  2313.340787  2211.419962

                             ****ORCA TERMINATED NORMALLY****
TOTAL RUN TIME: 0 days 0 hours 2 minutes 17 seconds 108 msec
