                         Program Version 4.1.x  -  STABLE  -
|  1> ! RHF DLPNO-CCSD(T) cc-pVTZ RIJK cc-pVTZ/JK cc-pVTZ/C
|  2> ! KDIIS SOSCF TightSCF TightPNO
|  3>
|  4> %pal nprocs 8 end
|  5>
|  6> %maxcore 8000
|  7>
|  8> %scf maxiter 300
|  9>      shift shift 0.2 erroff 0.1 end
| 10> end
| 11>
| 12> * xyzfile 0 1 chloropropane_g.xyz
| 13>
| 14>
| 15>                          ****END OF INPUT****

CARTESIAN COORDINATES (ANGSTROEM)
---------------------------------
  C      0.175530    0.886450    0.309040
  Cl     1.469030   -0.347260   -0.067390
  C     -1.155240    0.562000   -0.357560
  C     -1.823810   -0.720960    0.144070
  H      0.574240    1.842100   -0.034480
  H      0.090300    0.903620    1.397850
  H     -1.812930    1.422030   -0.164740
  H     -1.011450    0.517050   -1.443480
  H     -2.788680   -0.873200   -0.350150
  H     -1.199560   -1.596390   -0.057210
  H     -2.004370   -0.676680    1.224600

 Total Charge           Charge          ....    0
 Multiplicity           Mult            ....    1
 Number of Electrons    NEL             ....   42
 Basis Dimension        Dim             ....  222

ORBITAL ENERGIES
----------------

  NO   OCC          E(Eh)            E(eV)
   0   2.0000    -104.814576     -2852.1496
   1   2.0000     -11.295399      -307.3634
   2   2.0000     -11.241375      -305.8934
   3   2.0000     -11.221669      -305.3572
   4   2.0000     -10.539551      -286.7958
   5   2.0000      -8.006267      -217.8616
   6   2.0000      -8.004632      -217.8171
   7   2.0000      -8.004604      -217.8164
   8   2.0000      -1.129157       -30.7259
   9   2.0000      -1.036288       -28.1988
  10   2.0000      -0.920385       -25.0449
  11   2.0000      -0.806975       -21.9589
  12   2.0000      -0.644535       -17.5387
  13   2.0000      -0.630391       -17.1538
  14   2.0000      -0.584320       -15.9002
  15   2.0000      -0.538725       -14.6594
  16   2.0000      -0.514500       -14.0003
  17   2.0000      -0.501700       -13.6519
  18   2.0000      -0.482429       -13.1275
  19   2.0000      -0.428360       -11.6563
  20   2.0000      -0.427518       -11.6334
  21   0.0000       0.133184         3.6241
  22   0.0000       0.162835         4.4310
  23   0.0000       0.173399         4.7184
  24   0.0000       0.191435         5.2092
  25   0.0000       0.201314         5.4780

MULLIKEN ATOMIC CHARGES
-----------------------
   0 C :   -0.071110
   1 Cl:   -0.241028
   2 C :   -0.163005
   3 C :   -0.284562
   4 H :    0.135465
   5 H :    0.122144
   6 H :    0.098314
   7 H :    0.105099
   8 H :    0.102127
   9 H :    0.111527
  10 H :    0.085031
Sum of atomic charges:    0.0000000

LOEWDIN ATOMIC CHARGES
----------------------
   0 C :   -0.082135
   1 Cl:    0.146074
   2 C :    0.025870
   3 C :    0.108054
   4 H :   -0.035617
   5 H :   -0.036279
   6 H :   -0.019271
   7 H :   -0.021650
   8 H :   -0.027178
   9 H :   -0.028407
  10 H :   -0.029461

  Mayer bond orders larger than 0.1
B(  0-C ,  1-Cl) :   0.9396 B(  0-C ,  2-C ) :   0.9589 B(  0-C ,  4-H ) :   0.9822
B(  0-C ,  5-H ) :   0.9757 B(  2-C ,  3-C ) :   0.9542 B(  2-C ,  6-H ) :   0.9756
B(  2-C ,  7-H ) :   0.9759 B(  3-C ,  8-H ) :   0.9844 B(  3-C ,  9-H ) :   0.9753
B(  3-C , 10-H ) :   0.9811

E(0)                                       ...   -577.245740843
E(0)                                       ...   -577.245740843
E(CORR)(strong-pairs)                      ...     -0.772101625
E(CORR)(weak-pairs)                        ...     -0.000471368
E(CORR)(corrected)                         ...     -0.772572993
E(TOT)                                     ...   -578.018313836
E(CCSD(T))                                 ...   -578.047864574
FINAL SINGLE POINT ENERGY      -578.047864573872

DIPOLE MOMENT
-------------
                                X             Y             Z
Electronic contribution:      9.55502      -1.47686      -0.53767
Nuclear contribution   :    -10.29812       2.04407       0.67166
                        -----------------------------------------
Total Dipole Moment    :     -0.74310       0.56721       0.13399
                        -----------------------------------------
Magnitude (a.u.)       :      0.94439
Magnitude (Debye)      :      2.40046

Rotational constants in cm-1:     0.394612     0.106333     0.091810
Rotational constants in MHz : 11830.173941  3187.776081  2752.391633

                             ****ORCA TERMINATED NORMALLY****
TOTAL RUN TIME: 0 days 0 hours 2 minutes 17 seconds 712 msec
