                         Program Version 4.1.x  -  STABLE  -
|  1> ! RHF DLPNO-CCSD(T) cc-pVTZ RIJK cc-pVTZ/JK cc-pVTZ/C
|  2> ! KDIIS SOSCF TightSCF TightPNO
|  3>
|  4> %pal nprocs 8 end
|  5>
|  6> %maxcore 8000
|  7>
|  8> %scf maxiter 300
|  9>      shift shift 0.2 erroff 0.1 end
| 10> end
| 11>
| 12> * xyzfile 0 1 chlorocyclohexane_eq.xyz
| 13>
| 14>
| 15>                          ****END OF INPUT****

CARTESIAN COORDINATES (ANGSTROEM)
---------------------------------
  C     -0.609500    0.000000    0.373170
  C      0.059210    1.268970   -0.152940
  C      1.559830    1.268160    0.198310
  C      2.261370    0.000010   -0.312300
  C      1.559860   -1.268150    0.198320
  C      0.059240   -1.268980   -0.152950
  Cl    -2.395000   -0.000010   -0.066850
  H      2.031370    2.164590   -0.221390
  H      1.678950    1.335960    1.289210
  H      3.314090    0.000030   -0.005110
  H      2.255200    0.000010   -1.411660
  H      1.678990   -1.335950    1.289220
  H      2.031430   -2.164580   -0.221380
  H     -0.067820    1.310020   -1.242420
  H     -0.435770    2.152860    0.262610
  H     -0.435720   -2.152870    0.262600
  H     -0.067770   -1.310010   -1.242420
  H     -0.607860   -0.000010    1.467530

 Total Charge           Charge          ....    0
 Multiplicity           Mult            ....    1
 Number of Electrons    NEL             ....   64
 Basis Dimension        Dim             ....  368

ORBITAL ENERGIES
----------------

  NO   OCC          E(Eh)            E(eV)
   0   2.0000    -104.808054     -2851.9721
   1   2.0000     -11.295577      -307.3683
   2   2.0000     -11.233535      -305.6800
   3   2.0000     -11.233520      -305.6796
   4   2.0000     -11.231535      -305.6256
   5   2.0000     -11.231485      -305.6242
   6   2.0000     -11.228590      -305.5455
   7   2.0000     -10.533103      -286.6203
   8   2.0000      -7.999754      -217.6844
   9   2.0000      -7.998192      -217.6419
  10   2.0000      -7.998181      -217.6416
  11   2.0000      -1.150355       -31.3027
  12   2.0000      -1.081002       -29.4156
  13   2.0000      -1.016119       -27.6500
  14   2.0000      -0.980816       -26.6894
  15   2.0000      -0.847199       -23.0535
  16   2.0000      -0.824400       -22.4331
  17   2.0000      -0.767999       -20.8983
  18   2.0000      -0.657566       -17.8933
  19   2.0000      -0.618838       -16.8394
  20   2.0000      -0.612983       -16.6801
  21   2.0000      -0.608320       -16.5532
  22   2.0000      -0.546919       -14.8824
  23   2.0000      -0.540132       -14.6977
  24   2.0000      -0.530193       -14.4273
  25   2.0000      -0.510679       -13.8963
  26   2.0000      -0.498032       -13.5521
  27   2.0000      -0.468580       -12.7507
  28   2.0000      -0.455747       -12.4015
  29   2.0000      -0.447277       -12.1710
  30   2.0000      -0.420687       -11.4475
  31   2.0000      -0.417989       -11.3741
  32   0.0000       0.128903         3.5076
  33   0.0000       0.146933         3.9982
  34   0.0000       0.159195         4.3319
  35   0.0000       0.169305         4.6070
  36   0.0000       0.200752         5.4627

MULLIKEN ATOMIC CHARGES
-----------------------
   0 C :    0.003686
   1 C :   -0.179484
   2 C :   -0.210672
   3 C :   -0.190091
   4 C :   -0.210670
   5 C :   -0.179489
   6 Cl:   -0.258117
   7 H :    0.115746
   8 H :    0.093317
   9 H :    0.113676
  10 H :    0.092066
  11 H :    0.093320
  12 H :    0.115740
  13 H :    0.104571
  14 H :    0.126274
  15 H :    0.126277
  16 H :    0.104577
  17 H :    0.139271
Sum of atomic charges:    0.0000000

LOEWDIN ATOMIC CHARGES
----------------------
   0 C :   -0.151900
   1 C :    0.042768
   2 C :    0.062106
   3 C :    0.057542
   4 C :    0.062103
   5 C :    0.042785
   6 Cl:    0.150677
   7 H :   -0.023332
   8 H :   -0.025834
   9 H :   -0.025141
  10 H :   -0.025118
  11 H :   -0.025835
  12 H :   -0.023327
  13 H :   -0.021039
  14 H :   -0.021302
  15 H :   -0.021308
  16 H :   -0.021046
  17 H :   -0.032800

  Mayer bond orders larger than 0.1
B(  0-C ,  1-C ) :   0.9467 B(  0-C ,  5-C ) :   0.9467 B(  0-C ,  6-Cl) :   0.9486
B(  0-C , 17-H ) :   0.9748 B(  1-C ,  2-C ) :   0.9426 B(  1-C , 13-H ) :   0.9778
B(  1-C , 14-H ) :   0.9891 B(  2-C ,  3-C ) :   0.9447 B(  2-C ,  7-H ) :   0.9918
B(  2-C ,  8-H ) :   0.9831 B(  3-C ,  4-C ) :   0.9447 B(  3-C ,  9-H ) :   0.9940
B(  3-C , 10-H ) :   0.9836 B(  4-C ,  5-C ) :   0.9426 B(  4-C , 11-H ) :   0.9831
B(  4-C , 12-H ) :   0.9918 B(  5-C , 15-H ) :   0.9891 B(  5-C , 16-H ) :   0.9778

E(0)                                       ...   -693.227633356
E(0)                                       ...   -693.227633356
E(CORR)(strong-pairs)                      ...     -1.290965664
E(CORR)(weak-pairs)                        ...     -0.001250712
E(CORR)(corrected)                         ...     -1.292216376
E(TOT)                                     ...   -694.519849732
E(CCSD(T))                                 ...   -694.572941201
FINAL SINGLE POINT ENERGY      -694.572941201458

DIPOLE MOMENT
-------------
                                X             Y             Z
Electronic contribution:    -13.90338      -0.00007      -0.16148
Nuclear contribution   :     14.99987       0.00007       0.32675
                        -----------------------------------------
Total Dipole Moment    :      1.09649       0.00001       0.16527
                        -----------------------------------------
Magnitude (a.u.)       :      1.10888
Magnitude (Debye)      :      2.81855

Rotational constants in cm-1:     0.142200     0.045279     0.036641
Rotational constants in MHz :  4263.055368  1357.437532  1098.458415

                             ****ORCA TERMINATED NORMALLY****
TOTAL RUN TIME: 0 days 0 hours 11 minutes 11 seconds 204 msec
