                         Program Version 4.1.x  -  STABLE  -
|  1> ! RHF DLPNO-CCSD(T) cc-pVTZ RIJK cc-pVTZ/JK cc-pVTZ/C
|  2> ! KDIIS SOSCF TightSCF TightPNO
|  3>
|  4> %pal nprocs 8 end
|  5>
|  6> %maxcore 8000
|  7>
|  8> %scf maxiter 300
|  9>      shift shift 0.2 erroff 0.1 end
| 10> end
| 11>
| 12> * xyzfile 0 1 cis_2_6_DiMe_cyclOMe_ecl.xyz
| 13>
| 14>
| 15>                          ****END OF INPUT****

CARTESIAN COORDINATES (ANGSTROEM)
---------------------------------
  C      0.471380    0.000130    0.076630
  C     -0.290490   -1.281270   -0.318780
  C     -1.719070   -1.262970    0.258370
  C     -2.492900   -0.000440   -0.139310
  C     -1.719550    1.262400    0.258340
  C     -0.290980    1.281240   -0.318780
  C      0.462590   -2.552810    0.092430
  C      0.461660    2.553020    0.092490
  O      1.756370    0.000460   -0.566460
  C      2.878720    0.000250    0.297800
  H     -2.255210   -2.161950   -0.071790
  H     -3.486040   -0.000620    0.326890
  H     -2.657270   -0.000510   -1.226320
  H     -1.662880    1.323690    1.356210
  H     -2.256020    2.161170   -0.071860
  H     -0.364220   -1.269780   -1.416890
  H     -0.364660    1.269750   -1.416900
  H      0.616930    0.000180    1.171060
  H      3.767500    0.000380   -0.338860
  H      2.903750    0.893290    0.939440
  H      2.903760   -0.893020    0.939100
  H     -0.080700   -3.446890   -0.233980
  H      1.460070   -2.583770   -0.354380
  H      0.570940   -2.612940    1.183310
  H     -1.662350   -1.324210    1.356250
  H      0.569860    2.613190    1.183390
  H     -0.081850    3.446940   -0.234000
  H      1.459200    2.584250   -0.354160

 Total Charge           Charge          ....    0
 Multiplicity           Mult            ....    1
 Number of Electrons    NEL             ....   80
 Basis Dimension        Dim             ....  552

ORBITAL ENERGIES
----------------

  NO   OCC          E(Eh)            E(eV)
   0   2.0000     -20.544024      -559.0313
   1   2.0000     -11.271338      -306.7087
   2   2.0000     -11.267555      -306.6058
   3   2.0000     -11.220854      -305.3350
   4   2.0000     -11.220839      -305.3346
   5   2.0000     -11.217019      -305.2306
   6   2.0000     -11.216604      -305.2193
   7   2.0000     -11.216168      -305.2074
   8   2.0000     -11.207768      -304.9789
   9   2.0000     -11.207760      -304.9787
  10   2.0000      -1.359063       -36.9820
  11   2.0000      -1.117136       -30.3988
  12   2.0000      -1.043292       -28.3894
  13   2.0000      -1.011498       -27.5243
  14   2.0000      -0.941382       -25.6163
  15   2.0000      -0.912773       -24.8378
  16   2.0000      -0.884785       -24.0762
  17   2.0000      -0.807420       -21.9710
  18   2.0000      -0.786219       -21.3941
  19   2.0000      -0.758074       -20.6282
  20   2.0000      -0.654622       -17.8132
  21   2.0000      -0.644881       -17.5481
  22   2.0000      -0.633442       -17.2368
  23   2.0000      -0.612332       -16.6624
  24   2.0000      -0.597738       -16.2653
  25   2.0000      -0.585448       -15.9309
  26   2.0000      -0.563843       -15.3429
  27   2.0000      -0.556768       -15.1504
  28   2.0000      -0.541832       -14.7440
  29   2.0000      -0.531988       -14.4761
  30   2.0000      -0.519230       -14.1290
  31   2.0000      -0.505097       -13.7444
  32   2.0000      -0.487406       -13.2630
  33   2.0000      -0.486669       -13.2429
  34   2.0000      -0.464947       -12.6519
  35   2.0000      -0.461161       -12.5488
  36   2.0000      -0.448196       -12.1960
  37   2.0000      -0.447056       -12.1650
  38   2.0000      -0.428067       -11.6483
  39   2.0000      -0.393483       -10.7072
  40   0.0000       0.141008         3.8370
  41   0.0000       0.147651         4.0178
  42   0.0000       0.156972         4.2714
  43   0.0000       0.158271         4.3068
  44   0.0000       0.183117         4.9829

MULLIKEN ATOMIC CHARGES
-----------------------
   0 C :    0.166393
   1 C :   -0.056233
   2 C :   -0.200844
   3 C :   -0.202890
   4 C :   -0.200841
   5 C :   -0.056250
   6 C :   -0.338789
   7 C :   -0.338767
   8 O :   -0.412544
   9 C :   -0.097084
  10 H :    0.108462
  11 H :    0.109293
  12 H :    0.089784
  13 H :    0.087126
  14 H :    0.108460
  15 H :    0.099880
  16 H :    0.099880
  17 H :    0.073749
  18 H :    0.106892
  19 H :    0.076212
  20 H :    0.076218
  21 H :    0.105178
  22 H :    0.117843
  23 H :    0.084373
  24 H :    0.087122
  25 H :    0.084358
  26 H :    0.105170
  27 H :    0.117850
Sum of atomic charges:   -0.0000000

LOEWDIN ATOMIC CHARGES
----------------------
   0 C :   -0.105827
   1 C :   -0.016087
   2 C :    0.062476
   3 C :    0.058493
   4 C :    0.062475
   5 C :   -0.016091
   6 C :    0.111930
   7 C :    0.111930
   8 O :    0.252487
   9 C :   -0.008411
  10 H :   -0.024166
  11 H :   -0.026386
  12 H :   -0.025665
  13 H :   -0.025861
  14 H :   -0.024164
  15 H :   -0.019674
  16 H :   -0.019671
  17 H :   -0.030059
  18 H :   -0.031623
  19 H :   -0.043433
  20 H :   -0.043436
  21 H :   -0.027693
  22 H :   -0.027447
  23 H :   -0.031548
  24 H :   -0.025859
  25 H :   -0.031546
  26 H :   -0.027695
  27 H :   -0.027449

  Mayer bond orders larger than 0.1
B(  0-C ,  1-C ) :   0.9845 B(  0-C ,  5-C ) :   0.9845 B(  0-C ,  8-O ) :   0.8840
B(  0-C , 17-H ) :   0.9617 B(  1-C ,  2-C ) :   0.9427 B(  1-C ,  6-C ) :   0.9485
B(  1-C , 15-H ) :   0.9745 B(  2-C ,  3-C ) :   0.9550 B(  2-C , 10-H ) :   0.9930
B(  2-C , 24-H ) :   0.9799 B(  3-C ,  4-C ) :   0.9550 B(  3-C , 11-H ) :   0.9955
B(  3-C , 12-H ) :   0.9847 B(  4-C ,  5-C ) :   0.9427 B(  4-C , 13-H ) :   0.9799
B(  4-C , 14-H ) :   0.9930 B(  5-C ,  7-C ) :   0.9485 B(  5-C , 16-H ) :   0.9745
B(  6-C , 21-H ) :   0.9872 B(  6-C , 22-H ) :   0.9862 B(  6-C , 23-H ) :   0.9807
B(  7-C , 25-H ) :   0.9807 B(  7-C , 26-H ) :   0.9872 B(  7-C , 27-H ) :   0.9862
B(  8-O ,  9-C ) :   0.9907 B(  9-C , 18-H ) :   0.9851 B(  9-C , 19-H ) :   0.9719
B(  9-C , 20-H ) :   0.9719

E(0)                                       ...   -426.299447046
E(0)                                       ...   -426.299447046
E(CORR)(strong-pairs)                      ...     -1.889958100
E(CORR)(weak-pairs)                        ...     -0.002389676
E(CORR)(corrected)                         ...     -1.892347776
E(TOT)                                     ...   -428.191794822
E(CCSD(T))                                 ...   -428.267302654
FINAL SINGLE POINT ENERGY      -428.267302653516

DIPOLE MOMENT
-------------
                                X             Y             Z
Electronic contribution:      0.52898       0.00068      -2.46412
Nuclear contribution   :     -0.62477      -0.00092       2.88107
                        -----------------------------------------
Total Dipole Moment    :     -0.09579      -0.00024       0.41695
                        -----------------------------------------
Magnitude (a.u.)       :      0.42781
Magnitude (Debye)      :      1.08740

Rotational constants in cm-1:     0.051116     0.041826     0.024797
Rotational constants in MHz :  1532.428852  1253.913346   743.397274

                             ****ORCA TERMINATED NORMALLY****
TOTAL RUN TIME: 0 days 0 hours 40 minutes 24 seconds 167 msec
