                         Program Version 4.1.x  -  STABLE  -
|  1> ! RHF DLPNO-CCSD(T) cc-pVTZ RIJK cc-pVTZ/JK cc-pVTZ/C
|  2> ! KDIIS SOSCF TightSCF TightPNO
|  3>
|  4> %pal nprocs 8 end
|  5>
|  6> %maxcore 8000
|  7>
|  8> %scf maxiter 300
|  9>      shift shift 0.2 erroff 0.1 end
| 10> end
| 11>
| 12> * xyzfile 0 1 cis_1_3_dimethylcyclohex_eq_eq.xyz
| 13>
| 14>
| 15>                          ****END OF INPUT****

CARTESIAN COORDINATES (ANGSTROEM)
---------------------------------
  C     -1.270020    1.110680    0.226020
  C      0.000030    1.874140   -0.178630
  C      1.270010    1.110710    0.226040
  C      1.285610   -0.324940   -0.330870
  C     -0.000010   -1.069380    0.075530
  C     -1.285580   -0.324950   -0.330830
  C      2.542940   -1.089660    0.101130
  C     -2.542960   -1.089630    0.101130
  H      2.162810    1.652400   -0.113140
  H      1.331900    1.064810    1.324390
  H      1.294270   -0.253420   -1.430560
  H      0.000030   -1.209910    1.168600
  H     -0.000010    2.025280   -1.268080
  H     -0.000010    2.874080    0.272890
  H     -1.294280   -0.253410   -1.430520
  H     -1.331920    1.064860    1.324370
  H     -2.162750    1.652400   -0.113290
  H      2.562790   -2.098650   -0.327180
  H      3.454460   -0.571700   -0.219390
  H      2.584350   -1.191100    1.193070
  H      0.000010   -2.076080   -0.364760
  H     -3.454460   -0.571640   -0.219410
  H     -2.562850   -2.098610   -0.327200
  H     -2.584410   -1.191090    1.193070

 Total Charge           Charge          ....    0
 Multiplicity           Mult            ....    1
 Number of Electrons    NEL             ....   64
 Basis Dimension        Dim             ....  464

ORBITAL ENERGIES
----------------

  NO   OCC          E(Eh)            E(eV)
   0   2.0000     -11.220852      -305.3349
   1   2.0000     -11.220841      -305.3346
   2   2.0000     -11.214394      -305.1592
   3   2.0000     -11.212806      -305.1160
   4   2.0000     -11.212685      -305.1127
   5   2.0000     -11.211642      -305.0843
   6   2.0000     -11.208962      -305.0114
   7   2.0000     -11.208961      -305.0113
   8   2.0000      -1.119095       -30.4521
   9   2.0000      -1.039964       -28.2989
  10   2.0000      -1.011682       -27.5293
  11   2.0000      -0.917178       -24.9577
  12   2.0000      -0.911166       -24.7941
  13   2.0000      -0.814430       -22.1618
  14   2.0000      -0.779231       -21.2040
  15   2.0000      -0.746771       -20.3207
  16   2.0000      -0.633178       -17.2297
  17   2.0000      -0.616784       -16.7836
  18   2.0000      -0.601726       -16.3738
  19   2.0000      -0.584067       -15.8933
  20   2.0000      -0.578589       -15.7442
  21   2.0000      -0.540649       -14.7118
  22   2.0000      -0.529943       -14.4205
  23   2.0000      -0.526652       -14.3309
  24   2.0000      -0.509210       -13.8563
  25   2.0000      -0.502745       -13.6804
  26   2.0000      -0.471217       -12.8225
  27   2.0000      -0.469985       -12.7889
  28   2.0000      -0.458576       -12.4785
  29   2.0000      -0.444849       -12.1050
  30   2.0000      -0.419767       -11.4225
  31   2.0000      -0.417467       -11.3599
  32   0.0000       0.141352         3.8464
  33   0.0000       0.153164         4.1678
  34   0.0000       0.156371         4.2551
  35   0.0000       0.160427         4.3654
  36   0.0000       0.192497         5.2381

MULLIKEN ATOMIC CHARGES
-----------------------
   0 C :   -0.184898
   1 C :   -0.205779
   2 C :   -0.184886
   3 C :   -0.076749
   4 C :   -0.179126
   5 C :   -0.076731
   6 C :   -0.307435
   7 C :   -0.307431
   8 H :    0.105650
   9 H :    0.084823
  10 H :    0.097174
  11 H :    0.083993
  12 H :    0.087205
  13 H :    0.108062
  14 H :    0.097166
  15 H :    0.084826
  16 H :    0.105650
  17 H :    0.097701
  18 H :    0.098217
  19 H :    0.087611
  20 H :    0.101432
  21 H :    0.098214
  22 H :    0.097700
  23 H :    0.087610
Sum of atomic charges:   -0.0000000

LOEWDIN ATOMIC CHARGES
----------------------
   0 C :    0.060904
   1 C :    0.059426
   2 C :    0.060885
   3 C :   -0.019243
   4 C :    0.065366
   5 C :   -0.019279
   6 C :    0.110925
   7 C :    0.110931
   8 H :   -0.026423
   9 H :   -0.025908
  10 H :   -0.024190
  11 H :   -0.024396
  12 H :   -0.027116
  13 H :   -0.027188
  14 H :   -0.024181
  15 H :   -0.025913
  16 H :   -0.026422
  17 H :   -0.028807
  18 H :   -0.028775
  19 H :   -0.029044
  20 H :   -0.024922
  21 H :   -0.028773
  22 H :   -0.028810
  23 H :   -0.029045

  Mayer bond orders larger than 0.1
B(  0-C ,  1-C ) :   0.9565 B(  0-C ,  5-C ) :   0.9487 B(  0-C , 15-H ) :   0.9806
B(  0-C , 16-H ) :   0.9949 B(  1-C ,  2-C ) :   0.9565 B(  1-C , 12-H ) :   0.9852
B(  1-C , 13-H ) :   0.9955 B(  2-C ,  3-C ) :   0.9487 B(  2-C ,  8-H ) :   0.9949
B(  2-C ,  9-H ) :   0.9806 B(  3-C ,  4-C ) :   0.9584 B(  3-C ,  6-C ) :   0.9641
B(  3-C , 10-H ) :   0.9781 B(  4-C ,  5-C ) :   0.9584 B(  4-C , 11-H ) :   0.9763
B(  4-C , 20-H ) :   0.9938 B(  5-C ,  7-C ) :   0.9641 B(  5-C , 14-H ) :   0.9781
B(  6-C , 17-H ) :   0.9868 B(  6-C , 18-H ) :   0.9873 B(  6-C , 19-H ) :   0.9803
B(  7-C , 21-H ) :   0.9873 B(  7-C , 22-H ) :   0.9868 B(  7-C , 23-H ) :   0.9803

E(0)                                       ...   -312.382094897
E(0)                                       ...   -312.382094897
E(CORR)(strong-pairs)                      ...     -1.475373581
E(CORR)(weak-pairs)                        ...     -0.001663807
E(CORR)(corrected)                         ...     -1.477037388
E(TOT)                                     ...   -313.859132285
E(CCSD(T))                                 ...   -313.918153580
FINAL SINGLE POINT ENERGY      -313.918153580327

DIPOLE MOMENT
-------------
                                X             Y             Z
Electronic contribution:      0.00010       1.29968      -0.76958
Nuclear contribution   :     -0.00009      -1.26584       0.71001
                        -----------------------------------------
Total Dipole Moment    :      0.00001       0.03384      -0.05957
                        -----------------------------------------
Magnitude (a.u.)       :      0.06851
Magnitude (Debye)      :      0.17415

Rotational constants in cm-1:     0.096978     0.052752     0.036957
Rotational constants in MHz :  2907.327969  1581.478905  1107.946958

                             ****ORCA TERMINATED NORMALLY****
TOTAL RUN TIME: 0 days 0 hours 19 minutes 20 seconds 512 msec
