                         Program Version 4.1.x  -  STABLE  -
|  1> ! RHF DLPNO-CCSD(T) cc-pVTZ RIJK cc-pVTZ/JK cc-pVTZ/C
|  2> ! KDIIS SOSCF TightSCF TightPNO
|  3>
|  4> %pal nprocs 8 end
|  5>
|  6> %maxcore 8000
|  7>
|  8> %scf maxiter 300
|  9>      shift shift 0.2 erroff 0.1 end
| 10> end
| 11>
| 12> * xyzfile 0 1 cis_2_6_DiMe_cyclOMe_anti.xyz
| 13>
| 14>
| 15>                          ****END OF INPUT****

CARTESIAN COORDINATES (ANGSTROEM)
---------------------------------
  C      0.450350    0.000120   -0.445210
  C     -0.166930    1.287220    0.147200
  C     -1.698380    1.262590   -0.024810
  C     -2.332910   -0.000600    0.569660
  C     -1.697700   -1.263460   -0.024790
  C     -0.166230   -1.287280    0.147200
  C      0.442900    2.550500   -0.474720
  C      0.444260   -2.550230   -0.474760
  O      1.887330    0.000490   -0.401890
  C      2.503050    0.000570    0.875580
  H     -2.129460    2.161630    0.433870
  H     -3.415600   -0.000890    0.392810
  H     -2.194480   -0.000550    1.660600
  H     -1.936920   -1.319600   -1.097730
  H     -2.128310   -2.162720    0.433880
  H      0.036930    1.298470    1.228980
  H      0.037660   -1.298440    1.228970
  H      0.246060    0.000050   -1.526050
  H      3.580360    0.001070    0.691720
  H      2.251370    0.892590    1.465880
  H      2.252120   -0.891840    1.465610
  H      0.006160    3.451600   -0.029040
  H      1.526610    2.588140   -0.335640
  H      0.249320    2.583550   -1.554140
  H     -1.937620    1.318590   -1.097750
  H      0.250900   -2.583220   -1.554220
  H      0.007810   -3.451560   -0.029270
  H      1.527950   -2.587430   -0.335480

 Total Charge           Charge          ....    0
 Multiplicity           Mult            ....    1
 Number of Electrons    NEL             ....   80
 Basis Dimension        Dim             ....  552

ORBITAL ENERGIES
----------------

  NO   OCC          E(Eh)            E(eV)
   0   2.0000     -20.544503      -559.0444
   1   2.0000     -11.271199      -306.7049
   2   2.0000     -11.265523      -306.5505
   3   2.0000     -11.224072      -305.4225
   4   2.0000     -11.224057      -305.4221
   5   2.0000     -11.219260      -305.2916
   6   2.0000     -11.218770      -305.2783
   7   2.0000     -11.218398      -305.2681
   8   2.0000     -11.207695      -304.9769
   9   2.0000     -11.207694      -304.9769
  10   2.0000      -1.357094       -36.9284
  11   2.0000      -1.118423       -30.4338
  12   2.0000      -1.045364       -28.4458
  13   2.0000      -1.011209       -27.5164
  14   2.0000      -0.944252       -25.6944
  15   2.0000      -0.913704       -24.8631
  16   2.0000      -0.890651       -24.2358
  17   2.0000      -0.804658       -21.8958
  18   2.0000      -0.788294       -21.4506
  19   2.0000      -0.753519       -20.5043
  20   2.0000      -0.661498       -18.0003
  21   2.0000      -0.641276       -17.4500
  22   2.0000      -0.631445       -17.1825
  23   2.0000      -0.620823       -16.8935
  24   2.0000      -0.597168       -16.2498
  25   2.0000      -0.580369       -15.7927
  26   2.0000      -0.562053       -15.2942
  27   2.0000      -0.557794       -15.1783
  28   2.0000      -0.540822       -14.7165
  29   2.0000      -0.530947       -14.4478
  30   2.0000      -0.523222       -14.2376
  31   2.0000      -0.507154       -13.8004
  32   2.0000      -0.495531       -13.4841
  33   2.0000      -0.487470       -13.2647
  34   2.0000      -0.467468       -12.7205
  35   2.0000      -0.465146       -12.6573
  36   2.0000      -0.449381       -12.2283
  37   2.0000      -0.447986       -12.1903
  38   2.0000      -0.420188       -11.4339
  39   2.0000      -0.395528       -10.7629
  40   0.0000       0.137621         3.7449
  41   0.0000       0.148582         4.0431
  42   0.0000       0.154296         4.1986
  43   0.0000       0.157407         4.2833
  44   0.0000       0.182822         4.9748

MULLIKEN ATOMIC CHARGES
-----------------------
   0 C :    0.155928
   1 C :   -0.117620
   2 C :   -0.192224
   3 C :   -0.205672
   4 C :   -0.192230
   5 C :   -0.117631
   6 C :   -0.305246
   7 C :   -0.305237
   8 O :   -0.404644
   9 C :   -0.113737
  10 H :    0.109224
  11 H :    0.110970
  12 H :    0.088511
  13 H :    0.090473
  14 H :    0.109229
  15 H :    0.103608
  16 H :    0.103612
  17 H :    0.111051
  18 H :    0.126106
  19 H :    0.075851
  20 H :    0.075853
  21 H :    0.095980
  22 H :    0.116635
  23 H :    0.089060
  24 H :    0.090477
  25 H :    0.089060
  26 H :    0.095978
  27 H :    0.116634
Sum of atomic charges:   -0.0000000

LOEWDIN ATOMIC CHARGES
----------------------
   0 C :   -0.114096
   1 C :   -0.019745
   2 C :    0.064102
   3 C :    0.058599
   4 C :    0.064107
   5 C :   -0.019748
   6 C :    0.115314
   7 C :    0.115323
   8 O :    0.251275
   9 C :   -0.003506
  10 H :   -0.024128
  11 H :   -0.025724
  12 H :   -0.026714
  13 H :   -0.024103
  14 H :   -0.024133
  15 H :   -0.027601
  16 H :   -0.027601
  17 H :   -0.019544
  18 H :   -0.030815
  19 H :   -0.044444
  20 H :   -0.044445
  21 H :   -0.029374
  22 H :   -0.027806
  23 H :   -0.026952
  24 H :   -0.024105
  25 H :   -0.026951
  26 H :   -0.029375
  27 H :   -0.027811

  Mayer bond orders larger than 0.1
B(  0-C ,  1-C ) :   0.9740 B(  0-C ,  5-C ) :   0.9740 B(  0-C ,  8-O ) :   0.9467
B(  0-C , 17-H ) :   0.9723 B(  1-C ,  2-C ) :   0.9512 B(  1-C ,  6-C ) :   0.9696
B(  1-C , 15-H ) :   0.9702 B(  2-C ,  3-C ) :   0.9531 B(  2-C , 10-H ) :   0.9930
B(  2-C , 24-H ) :   0.9822 B(  3-C ,  4-C ) :   0.9531 B(  3-C , 11-H ) :   0.9949
B(  3-C , 12-H ) :   0.9852 B(  4-C ,  5-C ) :   0.9512 B(  4-C , 13-H ) :   0.9822
B(  4-C , 14-H ) :   0.9930 B(  5-C ,  7-C ) :   0.9696 B(  5-C , 16-H ) :   0.9702
B(  6-C , 21-H ) :   0.9874 B(  6-C , 22-H ) :   0.9790 B(  6-C , 23-H ) :   0.9807
B(  7-C , 25-H ) :   0.9807 B(  7-C , 26-H ) :   0.9874 B(  7-C , 27-H ) :   0.9790
B(  8-O ,  9-C ) :   0.9900 B(  9-C , 18-H ) :   0.9828 B(  9-C , 19-H ) :   0.9700
B(  9-C , 20-H ) :   0.9700

E(0)                                       ...   -426.296321771
E(0)                                       ...   -426.296321771
E(CORR)(strong-pairs)                      ...     -1.891586599
E(CORR)(weak-pairs)                        ...     -0.002307867
E(CORR)(corrected)                         ...     -1.893894467
E(TOT)                                     ...   -428.190216238
E(CCSD(T))                                 ...   -428.265990677
FINAL SINGLE POINT ENERGY      -428.265990677088

DIPOLE MOMENT
-------------
                                X             Y             Z
Electronic contribution:      1.49918       0.00045      -1.03725
Nuclear contribution   :     -1.83725      -0.00057       1.51751
                        -----------------------------------------
Total Dipole Moment    :     -0.33807      -0.00012       0.48026
                        -----------------------------------------
Magnitude (a.u.)       :      0.58731
Magnitude (Debye)      :      1.49283

Rotational constants in cm-1:     0.048404     0.044235     0.026366
Rotational constants in MHz :  1451.110927  1326.146856   790.418753

                             ****ORCA TERMINATED NORMALLY****
TOTAL RUN TIME: 0 days 0 hours 49 minutes 48 seconds 528 msec
