                         Program Version 4.1.x  -  STABLE  -
|  1> ! RHF DLPNO-CCSD(T) cc-pVTZ RIJK cc-pVTZ/JK cc-pVTZ/C
|  2> ! KDIIS SOSCF TightSCF TightPNO
|  3>
|  4> %pal nprocs 8 end
|  5>
|  6> %maxcore 8000
|  7>
|  8> %scf maxiter 300
|  9>      shift shift 0.2 erroff 0.1 end
| 10> end
| 11>
| 12> * xyzfile 0 1 cis_1_3_dimethylcyclohex_ax_ax.xyz
| 13>
| 14>
| 15>                          ****END OF INPUT****

CARTESIAN COORDINATES (ANGSTROEM)
---------------------------------
  C     -1.267380    1.190190    0.110650
  C      0.000030    1.569140   -0.673290
  C      1.267410    1.190160    0.110680
  C      1.318170   -0.309530    0.480210
  C     -0.000010   -0.732910    1.175870
  C     -1.318180   -0.309510    0.480220
  C      1.720590   -1.192220   -0.714980
  C     -1.720620   -1.192190   -0.714960
  H      2.166080    1.465180   -0.456880
  H      1.291750    1.782890    1.036710
  H      2.113410   -0.434100    1.229260
  H      0.000020   -0.275670    2.175740
  H      0.000050    1.074110   -1.653310
  H      0.000030    2.646770   -0.879370
  H     -2.113430   -0.434030    1.229270
  H     -1.291730    1.782950    1.036660
  H     -2.166030    1.465210   -0.456930
  H      2.738920   -0.948950   -1.040760
  H      1.703310   -2.254080   -0.443420
  H      1.063420   -1.063480   -1.579280
  H     -0.000010   -1.819180    1.339310
  H     -1.703340   -2.254050   -0.443410
  H     -2.738960   -0.948920   -1.040710
  H     -1.063480   -1.063430   -1.579290

 Total Charge           Charge          ....    0
 Multiplicity           Mult            ....    1
 Number of Electrons    NEL             ....   64
 Basis Dimension        Dim             ....  464

ORBITAL ENERGIES
----------------

  NO   OCC          E(Eh)            E(eV)
   0   2.0000     -11.221731      -305.3588
   1   2.0000     -11.221724      -305.3586
   2   2.0000     -11.213466      -305.1339
   3   2.0000     -11.212782      -305.1153
   4   2.0000     -11.212552      -305.1090
   5   2.0000     -11.212512      -305.1080
   6   2.0000     -11.207669      -304.9762
   7   2.0000     -11.207666      -304.9761
   8   2.0000      -1.115779       -30.3619
   9   2.0000      -1.034408       -28.1477
  10   2.0000      -1.007794       -27.4235
  11   2.0000      -0.925243       -25.1771
  12   2.0000      -0.910807       -24.7843
  13   2.0000      -0.819724       -22.3058
  14   2.0000      -0.789877       -21.4936
  15   2.0000      -0.705102       -19.1868
  16   2.0000      -0.654964       -17.8225
  17   2.0000      -0.612511       -16.6673
  18   2.0000      -0.598591       -16.2885
  19   2.0000      -0.588227       -16.0065
  20   2.0000      -0.568374       -15.4662
  21   2.0000      -0.548637       -14.9292
  22   2.0000      -0.545340       -14.8395
  23   2.0000      -0.531095       -14.4518
  24   2.0000      -0.504121       -13.7178
  25   2.0000      -0.484485       -13.1835
  26   2.0000      -0.480442       -13.0735
  27   2.0000      -0.468662       -12.7529
  28   2.0000      -0.462272       -12.5791
  29   2.0000      -0.434191       -11.8149
  30   2.0000      -0.415552       -11.3077
  31   2.0000      -0.414308       -11.2739
  32   0.0000       0.131026         3.5654
  33   0.0000       0.158134         4.3031
  34   0.0000       0.159561         4.3419
  35   0.0000       0.168442         4.5836
  36   0.0000       0.192635         5.2419

MULLIKEN ATOMIC CHARGES
-----------------------
   0 C :   -0.194743
   1 C :   -0.217743
   2 C :   -0.194736
   3 C :   -0.086024
   4 C :   -0.209438
   5 C :   -0.086022
   6 C :   -0.318377
   7 C :   -0.318376
   8 H :    0.103627
   9 H :    0.095596
  10 H :    0.108930
  11 H :    0.104390
  12 H :    0.093660
  13 H :    0.115812
  14 H :    0.108930
  15 H :    0.095598
  16 H :    0.103630
  17 H :    0.104235
  18 H :    0.100872
  19 H :    0.091729
  20 H :    0.101618
  21 H :    0.100873
  22 H :    0.104235
  23 H :    0.091726
Sum of atomic charges:   -0.0000000

LOEWDIN ATOMIC CHARGES
----------------------
   0 C :    0.062488
   1 C :    0.058249
   2 C :    0.062481
   3 C :   -0.013251
   4 C :    0.068692
   5 C :   -0.013250
   6 C :    0.110584
   7 C :    0.110580
   8 H :   -0.026826
   9 H :   -0.025297
  10 H :   -0.022327
  11 H :   -0.022183
  12 H :   -0.032061
  13 H :   -0.026900
  14 H :   -0.022327
  15 H :   -0.025298
  16 H :   -0.026830
  17 H :   -0.028552
  18 H :   -0.029103
  19 H :   -0.037112
  20 H :   -0.026993
  21 H :   -0.029105
  22 H :   -0.028552
  23 H :   -0.037107

  Mayer bond orders larger than 0.1
B(  0-C ,  1-C ) :   0.9465 B(  0-C ,  5-C ) :   0.9445 B(  0-C , 15-H ) :   0.9909
B(  0-C , 16-H ) :   0.9953 B(  1-C ,  2-C ) :   0.9465 B(  1-C , 12-H ) :   0.9837
B(  1-C , 13-H ) :   0.9934 B(  2-C ,  3-C ) :   0.9445 B(  2-C ,  8-H ) :   0.9953
B(  2-C ,  9-H ) :   0.9909 B(  3-C ,  4-C ) :   0.9444 B(  3-C ,  6-C ) :   0.9460
B(  3-C , 10-H ) :   0.9977 B(  4-C ,  5-C ) :   0.9444 B(  4-C , 11-H ) :   0.9940
B(  4-C , 20-H ) :   0.9955 B(  5-C ,  7-C ) :   0.9460 B(  5-C , 14-H ) :   0.9977
B(  6-C , 17-H ) :   0.9867 B(  6-C , 18-H ) :   0.9862 B(  6-C , 19-H ) :   0.9781
B(  7-C , 21-H ) :   0.9862 B(  7-C , 22-H ) :   0.9867 B(  7-C , 23-H ) :   0.9781

E(0)                                       ...   -312.371245430
E(0)                                       ...   -312.371245430
E(CORR)(strong-pairs)                      ...     -1.477636308
E(CORR)(weak-pairs)                        ...     -0.001622828
E(CORR)(corrected)                         ...     -1.479259136
E(TOT)                                     ...   -313.850504566
E(CCSD(T))                                 ...   -313.909832164
FINAL SINGLE POINT ENERGY      -313.909832164320

DIPOLE MOMENT
-------------
                                X             Y             Z
Electronic contribution:      0.00000       1.39636       1.69115
Nuclear contribution   :     -0.00001      -1.36973      -1.63496
                        -----------------------------------------
Total Dipole Moment    :     -0.00001       0.02664       0.05619
                        -----------------------------------------
Magnitude (a.u.)       :      0.06218
Magnitude (Debye)      :      0.15806

Rotational constants in cm-1:     0.081408     0.064838     0.049563
Rotational constants in MHz :  2440.544542  1943.791319  1485.860976

                             ****ORCA TERMINATED NORMALLY****
TOTAL RUN TIME: 0 days 0 hours 20 minutes 58 seconds 675 msec
