                         Program Version 4.1.x  -  STABLE  -
|  1> ! RHF DLPNO-CCSD(T) cc-pVTZ RIJK cc-pVTZ/JK cc-pVTZ/C
|  2> ! KDIIS SOSCF TightSCF TightPNO
|  3>
|  4> %pal nprocs 8 end
|  5>
|  6> %maxcore 8000
|  7>
|  8> %scf maxiter 300
|  9>      shift shift 0.2 erroff 0.1 end
| 10> end
| 11>
| 12> * xyzfile 0 1 cyclohexylmethylketone_ax.xyz
| 13>
| 14>
| 15>                          ****END OF INPUT****

CARTESIAN COORDINATES (ANGSTROEM)
---------------------------------
  C     -0.288800    1.339020    0.678450
  C      0.379240   -0.043000    0.895500
  C     -0.678100   -1.163600    0.909920
  C     -1.599370   -1.129000   -0.321780
  C     -2.243790    0.252160   -0.518690
  C     -1.181540    1.361860   -0.572610
  C      1.522890   -0.316760   -0.090230
  O      1.602750   -1.360450   -0.717500
  C      2.595970    0.751520   -0.240190
  H     -0.182290   -2.136760    0.978020
  H     -1.284330   -1.043680    1.818710
  H     -2.376500   -1.896260   -0.218260
  H     -1.015280   -1.392250   -1.211460
  H     -2.933410    0.458320    0.313590
  H     -2.848120    0.261760   -1.434050
  H      0.878680   -0.012850    1.878000
  H     -1.659270    2.344930   -0.666460
  H     -0.564310    1.229360   -1.473410
  H     -0.908130    1.553330    1.559880
  H      0.462970    2.134780    0.632790
  H      3.496030    0.299350   -0.660640
  H      2.245700    1.528910   -0.930220
  H      2.827260    1.241350    0.711270

 Total Charge           Charge          ....    0
 Multiplicity           Mult            ....    1
 Number of Electrons    NEL             ....   70
 Basis Dimension        Dim             ....  466

ORBITAL ENERGIES
----------------

  NO   OCC          E(Eh)            E(eV)
   0   2.0000     -20.539172      -558.8993
   1   2.0000     -11.327418      -308.2347
   2   2.0000     -11.240843      -305.8789
   3   2.0000     -11.233440      -305.6774
   4   2.0000     -11.232597      -305.6545
   5   2.0000     -11.224302      -305.4288
   6   2.0000     -11.218289      -305.2652
   7   2.0000     -11.217954      -305.2561
   8   2.0000     -11.212076      -305.0961
   9   2.0000      -1.377018       -37.4706
  10   2.0000      -1.120969       -30.5031
  11   2.0000      -1.033566       -28.1248
  12   2.0000      -1.005412       -27.3586
  13   2.0000      -0.985420       -26.8147
  14   2.0000      -0.858852       -23.3706
  15   2.0000      -0.833692       -22.6859
  16   2.0000      -0.778402       -21.1814
  17   2.0000      -0.705987       -19.2109
  18   2.0000      -0.659973       -17.9588
  19   2.0000      -0.646431       -17.5903
  20   2.0000      -0.624202       -16.9854
  21   2.0000      -0.613504       -16.6943
  22   2.0000      -0.590336       -16.0638
  23   2.0000      -0.584562       -15.9067
  24   2.0000      -0.561753       -15.2861
  25   2.0000      -0.534769       -14.5518
  26   2.0000      -0.529479       -14.4079
  27   2.0000      -0.518540       -14.1102
  28   2.0000      -0.513707       -13.9787
  29   2.0000      -0.488200       -13.2846
  30   2.0000      -0.482022       -13.1165
  31   2.0000      -0.458823       -12.4852
  32   2.0000      -0.433697       -11.8015
  33   2.0000      -0.431485       -11.7413
  34   2.0000      -0.399104       -10.8602
  35   0.0000       0.124213         3.3800
  36   0.0000       0.140832         3.8322
  37   0.0000       0.152115         4.1392
  38   0.0000       0.166815         4.5393
  39   0.0000       0.173702         4.7267

MULLIKEN ATOMIC CHARGES
-----------------------
   0 C :   -0.234125
   1 C :   -0.128552
   2 C :   -0.195086
   3 C :   -0.204228
   4 C :   -0.192777
   5 C :   -0.195143
   6 C :    0.279613
   7 O :   -0.374681
   8 C :   -0.309617
   9 H :    0.120389
  10 H :    0.101178
  11 H :    0.109531
  12 H :    0.113712
  13 H :    0.083683
  14 H :    0.110465
  15 H :    0.131629
  16 H :    0.114478
  17 H :    0.092074
  18 H :    0.111940
  19 H :    0.118878
  20 H :    0.135405
  21 H :    0.105799
  22 H :    0.105437
Sum of atomic charges:   -0.0000000

LOEWDIN ATOMIC CHARGES
----------------------
   0 C :    0.066835
   1 C :   -0.017148
   2 C :    0.070238
   3 C :    0.062494
   4 C :    0.056804
   5 C :    0.057942
   6 C :   -0.219952
   7 O :    0.132139
   8 C :    0.110211
   9 H :   -0.020448
  10 H :   -0.025563
  11 H :   -0.026581
  12 H :   -0.023727
  13 H :   -0.028033
  14 H :   -0.026384
  15 H :   -0.011052
  16 H :   -0.025727
  17 H :   -0.027553
  18 H :   -0.020651
  19 H :   -0.028387
  20 H :   -0.015975
  21 H :   -0.017455
  22 H :   -0.022026

  Mayer bond orders larger than 0.1
B(  0-C ,  1-C ) :   0.9342 B(  0-C ,  5-C ) :   0.9445 B(  0-C , 18-H ) :   0.9858
B(  0-C , 19-H ) :   0.9911 B(  1-C ,  2-C ) :   0.9522 B(  1-C ,  6-C ) :   0.9214
B(  1-C , 15-H ) :   0.9795 B(  2-C ,  3-C ) :   0.9454 B(  2-C ,  9-H ) :   0.9845
B(  2-C , 10-H ) :   0.9932 B(  3-C ,  4-C ) :   0.9475 B(  3-C , 11-H ) :   0.9926
B(  3-C , 12-H ) :   0.9785 B(  4-C ,  5-C ) :   0.9474 B(  4-C , 13-H ) :   0.9853
B(  4-C , 14-H ) :   0.9947 B(  5-C , 16-H ) :   0.9930 B(  5-C , 17-H ) :   0.9810
B(  6-C ,  7-O ) :   2.0687 B(  6-C ,  8-C ) :   0.9547 B(  8-C , 20-H ) :   0.9789
B(  8-C , 21-H ) :   0.9633 B(  8-C , 22-H ) :   0.9738

E(0)                                       ...   -386.102149233
E(0)                                       ...   -386.102149233
E(CORR)(strong-pairs)                      ...     -1.661864009
E(CORR)(weak-pairs)                        ...     -0.001865678
E(CORR)(corrected)                         ...     -1.663729687
E(TOT)                                     ...   -387.765878920
E(CCSD(T))                                 ...   -387.834919465
FINAL SINGLE POINT ENERGY      -387.834919464681

DIPOLE MOMENT
-------------
                                X             Y             Z
Electronic contribution:      3.83979      -3.69727      -0.74500
Nuclear contribution   :     -3.99579       4.73868       1.34014
                        -----------------------------------------
Total Dipole Moment    :     -0.15601       1.04142       0.59514
                        -----------------------------------------
Magnitude (a.u.)       :      1.20958
Magnitude (Debye)      :      3.07450

Rotational constants in cm-1:     0.082535     0.043971     0.036253
Rotational constants in MHz :  2474.330100  1318.223638  1086.824626

                             ****ORCA TERMINATED NORMALLY****
TOTAL RUN TIME: 0 days 0 hours 29 minutes 35 seconds 31 msec
