                         Program Version 4.1.x  -  STABLE  -
|  1> ! RHF DLPNO-CCSD(T) cc-pVTZ RIJK cc-pVTZ/JK cc-pVTZ/C
|  2> ! KDIIS SOSCF TightSCF TightPNO
|  3>
|  4> %pal nprocs 8 end
|  5>
|  6> %maxcore 8000
|  7>
|  8> %scf maxiter 300
|  9>      shift shift 0.2 erroff 0.1 end
| 10> end
| 11>
| 12> * xyzfile 0 1 cyclohexanethiol_eq.xyz
| 13>
| 14>
| 15>                          ****END OF INPUT****

CARTESIAN COORDINATES (ANGSTROEM)
---------------------------------
  C      0.616310    0.010470    0.371980
  C     -0.071590   -1.266630   -0.135390
  C     -1.570490   -1.264060    0.214070
  C     -2.275290   -0.003750   -0.310670
  C     -1.576930    1.271890    0.184640
  C     -0.077800    1.268940   -0.167390
  S      2.408610   -0.076070   -0.101770
  H     -2.043540   -2.165310   -0.194310
  H     -1.687690   -1.317850    1.305990
  H     -3.328530   -0.003360   -0.004520
  H     -2.268440   -0.016320   -1.410150
  H     -1.695160    1.350690    1.275130
  H     -2.053890    2.161350   -0.244720
  H      0.049690   -1.328040   -1.226040
  H      0.416570   -2.150730    0.290560
  H      0.406040    2.167920    0.233880
  H      0.049190    1.301760   -1.257630
  H      0.577170    0.015950    1.468220
  H      2.775510    1.099940    0.448390

 Total Charge           Charge          ....    0
 Multiplicity           Mult            ....    1
 Number of Electrons    NEL             ....   64
 Basis Dimension        Dim             ....  382

ORBITAL ENERGIES
----------------

  NO   OCC          E(Eh)            E(eV)
   0   2.0000     -91.941879     -2501.8657
   1   2.0000     -11.264237      -306.5155
   2   2.0000     -11.228378      -305.5397
   3   2.0000     -11.227180      -305.5071
   4   2.0000     -11.225347      -305.4572
   5   2.0000     -11.224977      -305.4472
   6   2.0000     -11.223123      -305.3967
   7   2.0000      -8.943731      -243.3713
   8   2.0000      -6.625013      -180.2758
   9   2.0000      -6.623965      -180.2473
  10   2.0000      -6.623039      -180.2221
  11   2.0000      -1.127070       -30.6691
  12   2.0000      -1.033534       -28.1239
  13   2.0000      -1.009047       -27.4576
  14   2.0000      -0.926014       -25.1981
  15   2.0000      -0.839859       -22.8537
  16   2.0000      -0.809697       -22.0330
  17   2.0000      -0.758187       -20.6313
  18   2.0000      -0.647647       -17.6234
  19   2.0000      -0.611847       -16.6492
  20   2.0000      -0.607964       -16.5435
  21   2.0000      -0.603001       -16.4085
  22   2.0000      -0.548661       -14.9298
  23   2.0000      -0.533322       -14.5124
  24   2.0000      -0.514560       -14.0019
  25   2.0000      -0.503259       -13.6944
  26   2.0000      -0.491002       -13.3608
  27   2.0000      -0.472118       -12.8470
  28   2.0000      -0.459517       -12.5041
  29   2.0000      -0.437908       -11.9161
  30   2.0000      -0.417520       -11.3613
  31   2.0000      -0.350342        -9.5333
  32   0.0000       0.128973         3.5095
  33   0.0000       0.147748         4.0204
  34   0.0000       0.153250         4.1701
  35   0.0000       0.163403         4.4464
  36   0.0000       0.185202         5.0396

MULLIKEN ATOMIC CHARGES
-----------------------
   0 C :   -0.071009
   1 C :   -0.203837
   2 C :   -0.204014
   3 C :   -0.188860
   4 C :   -0.203157
   5 C :   -0.182531
   6 S :   -0.207141
   7 H :    0.112695
   8 H :    0.090942
   9 H :    0.110959
  10 H :    0.090135
  11 H :    0.089796
  12 H :    0.112184
  13 H :    0.105049
  14 H :    0.125340
  15 H :    0.111198
  16 H :    0.103067
  17 H :    0.124074
  18 H :    0.085111
Sum of atomic charges:    0.0000000

LOEWDIN ATOMIC CHARGES
----------------------
   0 C :   -0.151176
   1 C :    0.039505
   2 C :    0.060180
   3 C :    0.057279
   4 C :    0.059771
   5 C :    0.039494
   6 S :    0.340679
   7 H :   -0.024755
   8 H :   -0.026193
   9 H :   -0.026161
  10 H :   -0.025792
  11 H :   -0.026883
  12 H :   -0.025176
  13 H :   -0.023698
  14 H :   -0.023523
  15 H :   -0.026966
  16 H :   -0.023275
  17 H :   -0.038515
  18 H :   -0.154793

  Mayer bond orders larger than 0.1
B(  0-C ,  1-C ) :   0.9449 B(  0-C ,  5-C ) :   0.9369 B(  0-C ,  6-S ) :   0.9974
B(  0-C , 17-H ) :   0.9755 B(  1-C ,  2-C ) :   0.9478 B(  1-C , 13-H ) :   0.9784
B(  1-C , 14-H ) :   0.9898 B(  2-C ,  3-C ) :   0.9458 B(  2-C ,  7-H ) :   0.9934
B(  2-C ,  8-H ) :   0.9838 B(  3-C ,  4-C ) :   0.9475 B(  3-C ,  9-H ) :   0.9946
B(  3-C , 10-H ) :   0.9839 B(  4-C ,  5-C ) :   0.9464 B(  4-C , 11-H ) :   0.9836
B(  4-C , 12-H ) :   0.9933 B(  5-C , 15-H ) :   0.9928 B(  5-C , 16-H ) :   0.9774
B(  6-S , 18-H ) :   1.0138

E(0)                                       ...   -631.831304387
E(0)                                       ...   -631.831304387
E(CORR)(strong-pairs)                      ...     -1.286172061
E(CORR)(weak-pairs)                        ...     -0.001272156
E(CORR)(corrected)                         ...     -1.287444217
E(TOT)                                     ...   -633.118748605
E(CCSD(T))                                 ...   -633.172396034
FINAL SINGLE POINT ENERGY      -633.172396033737

DIPOLE MOMENT
-------------
                                X             Y             Z
Electronic contribution:      8.48344      -0.87830      -0.45347
Nuclear contribution   :     -9.18099       1.15659       0.71148
                        -----------------------------------------
Total Dipole Moment    :     -0.69755       0.27829       0.25801
                        -----------------------------------------
Magnitude (a.u.)       :      0.79409
Magnitude (Debye)      :      2.01843

Rotational constants in cm-1:     0.140193     0.045995     0.037027
Rotational constants in MHz :  4202.869630  1378.901693  1110.055717

                             ****ORCA TERMINATED NORMALLY****
TOTAL RUN TIME: 0 days 0 hours 11 minutes 27 seconds 957 msec
