                         Program Version 4.1.x  -  STABLE  -
|  1> ! RHF DLPNO-CCSD(T) cc-pVTZ RIJK cc-pVTZ/JK cc-pVTZ/C
|  2> ! KDIIS SOSCF TightSCF TightPNO
|  3>
|  4> %pal nprocs 8 end
|  5>
|  6> %maxcore 8000
|  7>
|  8> %scf maxiter 300
|  9>      shift shift 0.2 erroff 0.1 end
| 10> end
| 11>
| 12> * xyzfile 0 1 cyclohexylmethylketone_eq.xyz
| 13>
| 14>
| 15>                          ****END OF INPUT****

CARTESIAN COORDINATES (ANGSTROEM)
---------------------------------
  C     -0.476380   -1.307800    0.063070
  C      0.348960   -0.043670    0.346930
  C     -0.258020    1.189280   -0.372400
  C     -1.741200    1.375980   -0.013490
  C     -2.560230    0.105900   -0.287920
  C     -1.955970   -1.111890    0.427670
  C      1.825700   -0.215700   -0.009550
  O      2.239840   -1.210140   -0.582910
  C      2.775360    0.914480    0.359470
  H      0.301770    2.097050   -0.119600
  H     -0.160110    1.046660   -1.458230
  H     -2.151760    2.224880   -0.574040
  H     -1.822010    1.635980    1.052120
  H     -2.580120   -0.084230   -1.370900
  H     -3.601740    0.254050    0.022720
  H      0.317540    0.168410    1.429130
  H     -2.522170   -2.017640    0.178780
  H     -2.051060   -0.976030    1.515360
  H     -0.384480   -1.557400   -1.001470
  H     -0.052220   -2.157170    0.609320
  H      3.795760    0.529350    0.406550
  H      2.737860    1.688410   -0.417010
  H      2.504620    1.389220    1.307940

 Total Charge           Charge          ....    0
 Multiplicity           Mult            ....    1
 Number of Electrons    NEL             ....   70
 Basis Dimension        Dim             ....  466

ORBITAL ENERGIES
----------------

  NO   OCC          E(Eh)            E(eV)
   0   2.0000     -20.538459      -558.8799
   1   2.0000     -11.325892      -308.1932
   2   2.0000     -11.239804      -305.8506
   3   2.0000     -11.234050      -305.6940
   4   2.0000     -11.232851      -305.6614
   5   2.0000     -11.226688      -305.4937
   6   2.0000     -11.221570      -305.3545
   7   2.0000     -11.220182      -305.3167
   8   2.0000     -11.217198      -305.2355
   9   2.0000      -1.375590       -37.4317
  10   2.0000      -1.123404       -30.5694
  11   2.0000      -1.036331       -28.2000
  12   2.0000      -1.007285       -27.4096
  13   2.0000      -0.986281       -26.8381
  14   2.0000      -0.859478       -23.3876
  15   2.0000      -0.836261       -22.7558
  16   2.0000      -0.767676       -20.8895
  17   2.0000      -0.727342       -19.7920
  18   2.0000      -0.662889       -18.0381
  19   2.0000      -0.636193       -17.3117
  20   2.0000      -0.617018       -16.7899
  21   2.0000      -0.612957       -16.6794
  22   2.0000      -0.597648       -16.2628
  23   2.0000      -0.586419       -15.9573
  24   2.0000      -0.576144       -15.6777
  25   2.0000      -0.540491       -14.7075
  26   2.0000      -0.529997       -14.4220
  27   2.0000      -0.516394       -14.0518
  28   2.0000      -0.498450       -13.5635
  29   2.0000      -0.487463       -13.2645
  30   2.0000      -0.476107       -12.9555
  31   2.0000      -0.461051       -12.5458
  32   2.0000      -0.453176       -12.3315
  33   2.0000      -0.433680       -11.8010
  34   2.0000      -0.397714       -10.8224
  35   0.0000       0.129146         3.5142
  36   0.0000       0.144564         3.9338
  37   0.0000       0.149964         4.0807
  38   0.0000       0.155862         4.2412
  39   0.0000       0.165398         4.5007

MULLIKEN ATOMIC CHARGES
-----------------------
   0 C :   -0.184558
   1 C :   -0.109922
   2 C :   -0.215980
   3 C :   -0.197971
   4 C :   -0.189179
   5 C :   -0.202032
   6 C :    0.278552
   7 O :   -0.371066
   8 C :   -0.312221
   9 H :    0.116189
  10 H :    0.104737
  11 H :    0.112824
  12 H :    0.089006
  13 H :    0.089727
  14 H :    0.110288
  15 H :    0.113263
  16 H :    0.112352
  17 H :    0.085503
  18 H :    0.106561
  19 H :    0.118375
  20 H :    0.134796
  21 H :    0.107302
  22 H :    0.103455
Sum of atomic charges:    0.0000000

LOEWDIN ATOMIC CHARGES
----------------------
   0 C :    0.068684
   1 C :   -0.021867
   2 C :    0.069196
   3 C :    0.059707
   4 C :    0.057489
   5 C :    0.058444
   6 C :   -0.218917
   7 O :    0.132185
   8 C :    0.110622
   9 H :   -0.026986
  10 H :   -0.021791
  11 H :   -0.025028
  12 H :   -0.026192
  13 H :   -0.025683
  14 H :   -0.026503
  15 H :   -0.015482
  16 H :   -0.024878
  17 H :   -0.027789
  18 H :   -0.019573
  19 H :   -0.020309
  20 H :   -0.015817
  21 H :   -0.016442
  22 H :   -0.023070

  Mayer bond orders larger than 0.1
B(  0-C ,  1-C ) :   0.9550 B(  0-C ,  5-C ) :   0.9499 B(  0-C , 18-H ) :   0.9786
B(  0-C , 19-H ) :   0.9900 B(  1-C ,  2-C ) :   0.9296 B(  1-C ,  6-C ) :   0.9236
B(  1-C , 15-H ) :   0.9631 B(  2-C ,  3-C ) :   0.9579 B(  2-C ,  9-H ) :   0.9924
B(  2-C , 10-H ) :   0.9755 B(  3-C ,  4-C ) :   0.9495 B(  3-C , 11-H ) :   0.9944
B(  3-C , 12-H ) :   0.9840 B(  4-C ,  5-C ) :   0.9454 B(  4-C , 13-H ) :   0.9841
B(  4-C , 14-H ) :   0.9949 B(  5-C , 16-H ) :   0.9959 B(  5-C , 17-H ) :   0.9837
B(  6-C ,  7-O ) :   2.0915 B(  6-C ,  8-C ) :   0.9661 B(  8-C , 20-H ) :   0.9791
B(  8-C , 21-H ) :   0.9628 B(  8-C , 22-H ) :   0.9754

E(0)                                       ...   -386.104509035
E(0)                                       ...   -386.104509035
E(CORR)(strong-pairs)                      ...     -1.660548981
E(CORR)(weak-pairs)                        ...     -0.001938254
E(CORR)(corrected)                         ...     -1.662487236
E(TOT)                                     ...   -387.766996270
E(CCSD(T))                                 ...   -387.835843328
FINAL SINGLE POINT ENERGY      -387.835843327963

DIPOLE MOMENT
-------------
                                X             Y             Z
Electronic contribution:      5.32061      -3.37860      -1.10891
Nuclear contribution   :     -5.86784       4.39868       1.63704
                        -----------------------------------------
Total Dipole Moment    :     -0.54723       1.02008       0.52813
                        -----------------------------------------
Magnitude (a.u.)       :      1.27238
Magnitude (Debye)      :      3.23413

Rotational constants in cm-1:     0.101467     0.035651     0.028781
Rotational constants in MHz :  3041.902484  1068.782164   862.834456

                             ****ORCA TERMINATED NORMALLY****
TOTAL RUN TIME: 0 days 0 hours 25 minutes 17 seconds 858 msec
