                         Program Version 4.1.x  -  STABLE  -
|  1> ! RHF DLPNO-CCSD(T) cc-pVTZ RIJK cc-pVTZ/JK cc-pVTZ/C
|  2> ! KDIIS SOSCF TightSCF TightPNO
|  3>
|  4> %pal nprocs 8 end
|  5>
|  6> %maxcore 8000
|  7>
|  8> %scf maxiter 300
|  9>      shift shift 0.2 erroff 0.1 end
| 10> end
| 11>
| 12> * xyzfile 0 1 cyclohexanethiol_ax.xyz
| 13>
| 14>
| 15>                          ****END OF INPUT****

CARTESIAN COORDINATES (ANGSTROEM)
---------------------------------
  C      0.692580    0.016620    0.818160
  C     -0.174770    1.286180    0.742570
  C     -1.169720    1.270600   -0.428320
  C     -2.038590    0.002630   -0.409870
  C     -1.176280   -1.269780   -0.387760
  C     -0.180600   -1.252230    0.784500
  S      1.951050   -0.091600   -0.556730
  H     -1.801920    2.165760   -0.383640
  H     -0.616160    1.319680   -1.374180
  H     -2.707710   -0.009420   -1.278870
  H     -2.684170    0.017140    0.481190
  H     -0.630320   -1.356770   -1.336050
  H     -1.812640   -2.159860   -0.311530
  H     -0.734270    1.350890    1.688770
  H      0.460770    2.178760    0.698400
  H      0.453180   -2.146330    0.771590
  H     -0.742870   -1.280220    1.729090
  H      1.269240    0.022490    1.748080
  H      2.614290    1.039320   -0.240800

 Total Charge           Charge          ....    0
 Multiplicity           Mult            ....    1
 Number of Electrons    NEL             ....   64
 Basis Dimension        Dim             ....  382

ORBITAL ENERGIES
----------------

  NO   OCC          E(Eh)            E(eV)
   0   2.0000     -91.941088     -2501.8442
   1   2.0000     -11.265972      -306.5627
   2   2.0000     -11.228680      -305.5479
   3   2.0000     -11.227906      -305.5269
   4   2.0000     -11.220211      -305.3175
   5   2.0000     -11.219341      -305.2938
   6   2.0000     -11.218054      -305.2588
   7   2.0000      -8.943018      -243.3519
   8   2.0000      -6.624315      -180.2568
   9   2.0000      -6.623268      -180.2283
  10   2.0000      -6.622354      -180.2034
  11   2.0000      -1.124213       -30.5914
  12   2.0000      -1.027570       -27.9616
  13   2.0000      -1.006769       -27.3956
  14   2.0000      -0.928842       -25.2751
  15   2.0000      -0.836955       -22.7747
  16   2.0000      -0.818296       -22.2670
  17   2.0000      -0.731518       -19.9056
  18   2.0000      -0.657277       -17.8854
  19   2.0000      -0.619380       -16.8542
  20   2.0000      -0.607911       -16.5421
  21   2.0000      -0.586208       -15.9515
  22   2.0000      -0.541956       -14.7474
  23   2.0000      -0.534338       -14.5401
  24   2.0000      -0.530542       -14.4368
  25   2.0000      -0.501848       -13.6560
  26   2.0000      -0.482768       -13.1368
  27   2.0000      -0.471687       -12.8353
  28   2.0000      -0.439950       -11.9716
  29   2.0000      -0.436510       -11.8780
  30   2.0000      -0.421969       -11.4824
  31   2.0000      -0.349555        -9.5119
  32   0.0000       0.126002         3.4287
  33   0.0000       0.151172         4.1136
  34   0.0000       0.159317         4.3352
  35   0.0000       0.167679         4.5628
  36   0.0000       0.181054         4.9267

MULLIKEN ATOMIC CHARGES
-----------------------
   0 C :   -0.093054
   1 C :   -0.195190
   2 C :   -0.188890
   3 C :   -0.195262
   4 C :   -0.200006
   5 C :   -0.209755
   6 S :   -0.207565
   7 H :    0.111012
   8 H :    0.104622
   9 H :    0.110140
  10 H :    0.084469
  11 H :    0.106606
  12 H :    0.112651
  13 H :    0.098891
  14 H :    0.111974
  15 H :    0.123463
  16 H :    0.100637
  17 H :    0.139017
  18 H :    0.086241
Sum of atomic charges:   -0.0000000

LOEWDIN ATOMIC CHARGES
----------------------
   0 C :   -0.138334
   1 C :    0.040563
   2 C :    0.058339
   3 C :    0.057374
   4 C :    0.057790
   5 C :    0.041414
   6 S :    0.334360
   7 H :   -0.026842
   8 H :   -0.027572
   9 H :   -0.026153
  10 H :   -0.028126
  11 H :   -0.027144
  12 H :   -0.025859
  13 H :   -0.022006
  14 H :   -0.027357
  15 H :   -0.024276
  16 H :   -0.021634
  17 H :   -0.038170
  18 H :   -0.156364

  Mayer bond orders larger than 0.1
B(  0-C ,  1-C ) :   0.9385 B(  0-C ,  5-C ) :   0.9477 B(  0-C ,  6-S ) :   0.9778
B(  0-C , 17-H ) :   0.9925 B(  1-C ,  2-C ) :   0.9456 B(  1-C , 13-H ) :   0.9812
B(  1-C , 14-H ) :   0.9917 B(  2-C ,  3-C ) :   0.9489 B(  2-C ,  7-H ) :   0.9934
B(  2-C ,  8-H ) :   0.9769 B(  3-C ,  4-C ) :   0.9472 B(  3-C ,  9-H ) :   0.9944
B(  3-C , 10-H ) :   0.9863 B(  4-C ,  5-C ) :   0.9465 B(  4-C , 11-H ) :   0.9797
B(  4-C , 12-H ) :   0.9930 B(  5-C , 15-H ) :   0.9900 B(  5-C , 16-H ) :   0.9824
B(  6-S , 18-H ) :   1.0125

E(0)                                       ...   -631.828444725
E(0)                                       ...   -631.828444725
E(CORR)(strong-pairs)                      ...     -1.287190823
E(CORR)(weak-pairs)                        ...     -0.001281240
E(CORR)(corrected)                         ...     -1.288472063
E(TOT)                                     ...   -633.116916788
E(CCSD(T))                                 ...   -633.170727362
FINAL SINGLE POINT ENERGY      -633.170727362315

DIPOLE MOMENT
-------------
                                X             Y             Z
Electronic contribution:      6.82975      -0.90563      -1.78251
Nuclear contribution   :     -7.23192       1.18341       2.28477
                        -----------------------------------------
Total Dipole Moment    :     -0.40216       0.27777       0.50226
                        -----------------------------------------
Magnitude (a.u.)       :      0.70083
Magnitude (Debye)      :      1.78137

Rotational constants in cm-1:     0.106337     0.056732     0.048433
Rotational constants in MHz :  3187.913732  1700.782862  1451.990373

                             ****ORCA TERMINATED NORMALLY****
TOTAL RUN TIME: 0 days 0 hours 11 minutes 45 seconds 145 msec
