                         Program Version 4.1.x  -  STABLE  -
|  1> ! RHF DLPNO-CCSD(T) cc-pVTZ RIJK cc-pVTZ/JK cc-pVTZ/C
|  2> ! KDIIS SOSCF TightSCF TightPNO
|  3>
|  4> %pal nprocs 8 end
|  5>
|  6> %maxcore 8000
|  7>
|  8> %scf maxiter 300
|  9>      shift shift 0.2 erroff 0.1 end
| 10> end
| 11>
| 12> * xyzfile 0 1 cyclohexene_boat.xyz
| 13>
| 14>
| 15>                          ****END OF INPUT****

CARTESIAN COORDINATES (ANGSTROEM)
---------------------------------
  C     -0.768250   -1.226750   -0.191760
  C     -1.403160    0.081950    0.343870
  C     -0.680500    1.297990   -0.180280
  C      0.659490    1.308650   -0.180730
  C      1.401870    0.104460    0.343350
  C      0.787670   -1.214810   -0.190730
  H      1.217250    2.168830   -0.544630
  H     -1.252140    2.149160   -0.543830
  H     -2.468080    0.110620    0.089430
  H     -1.353130    0.079800    1.444080
  H      1.352800    0.102330    1.443600
  H      2.466010    0.150070    0.088070
  H      1.177240   -2.053470    0.397780
  H      1.147080   -1.364240   -1.214860
  H     -1.145630   -2.072400    0.394670
  H     -1.124130   -1.379630   -1.216620

 Total Charge           Charge          ....    0
 Multiplicity           Mult            ....    1
 Number of Electrons    NEL             ....   46
 Basis Dimension        Dim             ....  320

ORBITAL ENERGIES
----------------

  NO   OCC          E(Eh)            E(eV)
   0   2.0000     -11.221825      -305.3614
   1   2.0000     -11.221812      -305.3610
   2   2.0000     -11.219291      -305.2924
   3   2.0000     -11.218989      -305.2842
   4   2.0000     -11.218747      -305.2776
   5   2.0000     -11.217339      -305.2393
   6   2.0000      -1.112126       -30.2625
   7   2.0000      -0.998011       -27.1572
   8   2.0000      -0.994324       -27.0569
   9   2.0000      -0.844792       -22.9880
  10   2.0000      -0.807708       -21.9789
  11   2.0000      -0.687719       -18.7138
  12   2.0000      -0.665256       -18.1025
  13   2.0000      -0.637623       -17.3506
  14   2.0000      -0.554054       -15.0766
  15   2.0000      -0.551693       -15.0123
  16   2.0000      -0.548264       -14.9190
  17   2.0000      -0.523931       -14.2569
  18   2.0000      -0.523323       -14.2403
  19   2.0000      -0.455148       -12.3852
  20   2.0000      -0.450597       -12.2614
  21   2.0000      -0.433260       -11.7896
  22   2.0000      -0.338833        -9.2201
  23   0.0000       0.138103         3.7580
  24   0.0000       0.154382         4.2009
  25   0.0000       0.167296         4.5524
  26   0.0000       0.178092         4.8461
  27   0.0000       0.178479         4.8566

MULLIKEN ATOMIC CHARGES
-----------------------
   0 C :   -0.185696
   1 C :   -0.158136
   2 C :   -0.209576
   3 C :   -0.209504
   4 C :   -0.158194
   5 C :   -0.185728
   6 H :    0.157107
   7 H :    0.157107
   8 H :    0.107469
   9 H :    0.095523
  10 H :    0.095547
  11 H :    0.107469
  12 H :    0.099870
  13 H :    0.093435
  14 H :    0.099904
  15 H :    0.093404
Sum of atomic charges:   -0.0000000

LOEWDIN ATOMIC CHARGES
----------------------
   0 C :    0.070656
   1 C :    0.048743
   2 C :    0.025012
   3 C :    0.025018
   4 C :    0.048770
   5 C :    0.070689
   6 H :   -0.036925
   7 H :   -0.036922
   8 H :   -0.024637
   9 H :   -0.022525
  10 H :   -0.022524
  11 H :   -0.024640
  12 H :   -0.031327
  13 H :   -0.029032
  14 H :   -0.031335
  15 H :   -0.029022

  Mayer bond orders larger than 0.1
B(  0-C ,  1-C ) :   0.9489 B(  0-C ,  5-C ) :   0.9241 B(  0-C , 14-H ) :   0.9962
B(  0-C , 15-H ) :   0.9911 B(  1-C ,  2-C ) :   0.9454 B(  1-C ,  8-H ) :   0.9983
B(  1-C ,  9-H ) :   0.9801 B(  2-C ,  3-C ) :   1.8770 B(  2-C ,  7-H ) :   0.9688
B(  3-C ,  4-C ) :   0.9455 B(  3-C ,  6-H ) :   0.9688 B(  4-C ,  5-C ) :   0.9489
B(  4-C , 10-H ) :   0.9802 B(  4-C , 11-H ) :   0.9983 B(  5-C , 12-H ) :   0.9962
B(  5-C , 13-H ) :   0.9911

E(0)                                       ...   -233.086345218
E(0)                                       ...   -233.086345218
E(CORR)(strong-pairs)                      ...     -1.062330944
E(CORR)(weak-pairs)                        ...     -0.001001455
E(CORR)(corrected)                         ...     -1.063332399
E(TOT)                                     ...   -234.149677617
E(CCSD(T))                                 ...   -234.194865365
FINAL SINGLE POINT ENERGY      -234.194865364627

DIPOLE MOMENT
-------------
                                X             Y             Z
Electronic contribution:     -0.01732       2.11510      -0.31882
Nuclear contribution   :      0.01816      -2.21792       0.35514
                        -----------------------------------------
Total Dipole Moment    :      0.00084      -0.10283       0.03632
                        -----------------------------------------
Magnitude (a.u.)       :      0.10905
Magnitude (Debye)      :      0.27719

Rotational constants in cm-1:     0.153895     0.151602     0.086218
Rotational constants in MHz :  4613.657771  4544.920645  2584.750552

                             ****ORCA TERMINATED NORMALLY****
TOTAL RUN TIME: 0 days 0 hours 9 minutes 2 seconds 992 msec
