                         Program Version 4.1.x  -  STABLE  -
|  1> ! RHF DLPNO-CCSD(T) cc-pVTZ RIJK cc-pVTZ/JK cc-pVTZ/C
|  2> ! KDIIS SOSCF TightSCF TightPNO
|  3>
|  4> %pal nprocs 8 end
|  5>
|  6> %maxcore 8000
|  7>
|  8> %scf maxiter 300
|  9>      shift shift 0.2 erroff 0.1 end
| 10> end
| 11>
| 12> * xyzfile 0 1 cyclohexene_b.xyz
| 13>
| 14>
| 15>                          ****END OF INPUT****

CARTESIAN COORDINATES (ANGSTROEM)
---------------------------------
  C      0.770670   -1.207490   -0.184120
  C     -0.771830   -1.206870   -0.183790
  C     -1.407940    0.088510    0.343180
  C     -0.669140    1.288200   -0.183340
  C      1.407980    0.087080    0.343350
  C      0.670440    1.287560   -0.183200
  H      1.122960   -1.359710   -1.233300
  H      1.162520   -2.076660    0.396970
  H     -1.164100   -2.075360    0.398030
  H     -1.124660   -1.359530   -1.232730
  H     -1.374340    0.120220    1.457700
  H     -2.481230    0.134700    0.040630
  H     -1.237430    2.172370   -0.519410
  H      2.481380    0.132280    0.041030
  H      1.374140    0.118590    1.457870
  H      1.239670    2.171160   -0.519190

 Total Charge           Charge          ....    0
 Multiplicity           Mult            ....    1
 Number of Electrons    NEL             ....   46
 Basis Dimension        Dim             ....  320

ORBITAL ENERGIES
----------------

  NO   OCC          E(Eh)            E(eV)
   0   2.0000     -11.226080      -305.4772
   1   2.0000     -11.226078      -305.4771
   2   2.0000     -11.223402      -305.4043
   3   2.0000     -11.222834      -305.3889
   4   2.0000     -11.220442      -305.3238
   5   2.0000     -11.218775      -305.2784
   6   2.0000      -1.115765       -30.3615
   7   2.0000      -0.997427       -27.1414
   8   2.0000      -0.995533       -27.0898
   9   2.0000      -0.841436       -22.8966
  10   2.0000      -0.803085       -21.8531
  11   2.0000      -0.678945       -18.4750
  12   2.0000      -0.663158       -18.0455
  13   2.0000      -0.636348       -17.3159
  14   2.0000      -0.555728       -15.1221
  15   2.0000      -0.552267       -15.0279
  16   2.0000      -0.547530       -14.8990
  17   2.0000      -0.522980       -14.2310
  18   2.0000      -0.520107       -14.1528
  19   2.0000      -0.454171       -12.3586
  20   2.0000      -0.450174       -12.2499
  21   2.0000      -0.428322       -11.6552
  22   2.0000      -0.339118        -9.2279
  23   0.0000       0.136063         3.7025
  24   0.0000       0.154188         4.1957
  25   0.0000       0.165964         4.5161
  26   0.0000       0.175695         4.7809
  27   0.0000       0.178028         4.8444

MULLIKEN ATOMIC CHARGES
-----------------------
   0 C :   -0.170038
   1 C :   -0.170048
   2 C :   -0.145725
   3 C :   -0.201056
   4 C :   -0.145714
   5 C :   -0.201077
   6 H :    0.084651
   7 H :    0.091928
   8 H :    0.091916
   9 H :    0.084658
  10 H :    0.093473
  11 H :    0.098572
  12 H :    0.148213
  13 H :    0.098569
  14 H :    0.093468
  15 H :    0.148208
Sum of atomic charges:   -0.0000000

LOEWDIN ATOMIC CHARGES
----------------------
   0 C :    0.050409
   1 C :    0.050421
   2 C :    0.035317
   3 C :    0.016333
   4 C :    0.035319
   5 C :    0.016342
   6 H :   -0.018055
   7 H :   -0.022684
   8 H :   -0.022683
   9 H :   -0.018055
  10 H :   -0.016913
  11 H :   -0.014814
  12 H :   -0.029601
  13 H :   -0.014814
  14 H :   -0.016919
  15 H :   -0.029603

  Mayer bond orders larger than 0.1
B(  0-C ,  1-C ) :   0.9221 B(  0-C ,  4-C ) :   0.9509 B(  0-C ,  6-H ) :   0.9921
B(  0-C ,  7-H ) :   0.9967 B(  1-C ,  2-C ) :   0.9509 B(  1-C ,  8-H ) :   0.9967
B(  1-C ,  9-H ) :   0.9921 B(  2-C ,  3-C ) :   0.9417 B(  2-C , 10-H ) :   0.9796
B(  2-C , 11-H ) :   1.0002 B(  3-C ,  5-C ) :   1.8773 B(  3-C , 12-H ) :   0.9717
B(  4-C ,  5-C ) :   0.9417 B(  4-C , 13-H ) :   1.0002 B(  4-C , 14-H ) :   0.9796
B(  5-C , 15-H ) :   0.9717

E(0)                                       ...   -233.081169310
E(0)                                       ...   -233.081169310
E(CORR)(strong-pairs)                      ...     -1.064005442
E(CORR)(weak-pairs)                        ...     -0.000992664
E(CORR)(corrected)                         ...     -1.064998106
E(TOT)                                     ...   -234.146167417
E(CCSD(T))                                 ...   -234.191625999
FINAL SINGLE POINT ENERGY      -234.191625998958

DIPOLE MOMENT
-------------
                                X             Y             Z
Electronic contribution:      0.00109       2.04719      -0.25015
Nuclear contribution   :     -0.00114      -2.12643       0.30245
                        -----------------------------------------
Total Dipole Moment    :     -0.00005      -0.07925       0.05229
                        -----------------------------------------
Magnitude (a.u.)       :      0.09494
Magnitude (Debye)      :      0.24133

Rotational constants in cm-1:     0.153756     0.153341     0.086784
Rotational constants in MHz :  4609.474852  4597.042994  2601.725562

                             ****ORCA TERMINATED NORMALLY****
TOTAL RUN TIME: 0 days 0 hours 7 minutes 5 seconds 859 msec
