                         Program Version 4.1.x  -  STABLE  -
|  1> ! RHF DLPNO-CCSD(T) cc-pVTZ RIJK cc-pVTZ/JK cc-pVTZ/C
|  2> ! KDIIS SOSCF TightSCF TightPNO
|  3>
|  4> %pal nprocs 8 end
|  5>
|  6> %maxcore 8000
|  7>
|  8> %scf maxiter 300
|  9>      shift shift 0.2 erroff 0.1 end
| 10> end
| 11>
| 12> * xyzfile 0 1 cyclohexylphosphine_eq.xyz
| 13>
| 14>
| 15>                          ****END OF INPUT****

CARTESIAN COORDINATES (ANGSTROEM)
---------------------------------
  C      0.613370   -0.000010    0.363010
  C     -0.094910   -1.268640   -0.151680
  C     -1.592060   -1.268480    0.204230
  C     -2.294910   -0.000000   -0.302950
  C     -1.592050    1.268490    0.204210
  C     -0.094900    1.268650   -0.151670
  P      2.426310    0.000000   -0.175830
  H     -2.072580   -2.163140   -0.210850
  H     -1.703410   -1.332190    1.296370
  H     -3.347600    0.000000    0.005490
  H     -2.291500   -0.000010   -1.402700
  H     -1.703430    1.332210    1.296340
  H     -2.072590    2.163130   -0.210890
  H      0.017150   -1.326090   -1.244390
  H      0.386700   -2.164830    0.259490
  H      0.386700    2.164830    0.259520
  H      0.017210    1.326100   -1.244360
  H      0.571690    0.000000    1.460120
  H      2.874840    1.038770    0.691260
  H      2.874850   -1.038820    0.691190

 Total Charge           Charge          ....    0
 Multiplicity           Mult            ....    1
 Number of Electrons    NEL             ....   64
 Basis Dimension        Dim             ....  396

ORBITAL ENERGIES
----------------

  NO   OCC          E(Eh)            E(eV)
   0   2.0000     -79.931957     -2175.0591
   1   2.0000     -11.235783      -305.7412
   2   2.0000     -11.224719      -305.4401
   3   2.0000     -11.224694      -305.4394
   4   2.0000     -11.221208      -305.3446
   5   2.0000     -11.221090      -305.3414
   6   2.0000     -11.219694      -305.3034
   7   2.0000      -7.474157      -203.3822
   8   2.0000      -5.367793      -146.0651
   9   2.0000      -5.367480      -146.0566
  10   2.0000      -5.366529      -146.0307
  11   2.0000      -1.116441       -30.3799
  12   2.0000      -1.010853       -27.5067
  13   2.0000      -1.004469       -27.3330
  14   2.0000      -0.860505       -23.4155
  15   2.0000      -0.834614       -22.7110
  16   2.0000      -0.782296       -21.2874
  17   2.0000      -0.748098       -20.3568
  18   2.0000      -0.640385       -17.4258
  19   2.0000      -0.605213       -16.4687
  20   2.0000      -0.601120       -16.3573
  21   2.0000      -0.595760       -16.2115
  22   2.0000      -0.540393       -14.7048
  23   2.0000      -0.528045       -14.3688
  24   2.0000      -0.501368       -13.6429
  25   2.0000      -0.492560       -13.4032
  26   2.0000      -0.489342       -13.3157
  27   2.0000      -0.484899       -13.1948
  28   2.0000      -0.456255       -12.4153
  29   2.0000      -0.432168       -11.7599
  30   2.0000      -0.413759       -11.2590
  31   2.0000      -0.354930        -9.6581
  32   0.0000       0.127884         3.4799
  33   0.0000       0.150277         4.0892
  34   0.0000       0.155039         4.2188
  35   0.0000       0.158431         4.3111
  36   0.0000       0.169520         4.6129

MULLIKEN ATOMIC CHARGES
-----------------------
   0 C :   -0.148620
   1 C :   -0.202892
   2 C :   -0.198422
   3 C :   -0.188319
   4 C :   -0.198424
   5 C :   -0.202899
   6 P :   -0.011999
   7 H :    0.109883
   8 H :    0.088517
   9 H :    0.109269
  10 H :    0.088473
  11 H :    0.088520
  12 H :    0.109883
  13 H :    0.101413
  14 H :    0.117175
  15 H :    0.117177
  16 H :    0.101421
  17 H :    0.113059
  18 H :    0.003391
  19 H :    0.003392
Sum of atomic charges:   -0.0000000

LOEWDIN ATOMIC CHARGES
----------------------
   0 C :   -0.125858
   1 C :    0.037684
   2 C :    0.058589
   3 C :    0.057022
   4 C :    0.058591
   5 C :    0.037692
   6 P :    0.429721
   7 H :   -0.026255
   8 H :   -0.026986
   9 H :   -0.026800
  10 H :   -0.026466
  11 H :   -0.026988
  12 H :   -0.026255
  13 H :   -0.025786
  14 H :   -0.026233
  15 H :   -0.026235
  16 H :   -0.025793
  17 H :   -0.041028
  18 H :   -0.124308
  19 H :   -0.124310

  Mayer bond orders larger than 0.1
B(  0-C ,  1-C ) :   0.9385 B(  0-C ,  5-C ) :   0.9385 B(  0-C ,  6-P ) :   1.0032
B(  0-C , 17-H ) :   0.9770 B(  1-C ,  2-C ) :   0.9489 B(  1-C , 13-H ) :   0.9783
B(  1-C , 14-H ) :   0.9921 B(  2-C ,  3-C ) :   0.9479 B(  2-C ,  7-H ) :   0.9942
B(  2-C ,  8-H ) :   0.9844 B(  3-C ,  4-C ) :   0.9479 B(  3-C ,  9-H ) :   0.9949
B(  3-C , 10-H ) :   0.9841 B(  4-C ,  5-C ) :   0.9489 B(  4-C , 11-H ) :   0.9844
B(  4-C , 12-H ) :   0.9942 B(  5-C , 15-H ) :   0.9921 B(  5-C , 16-H ) :   0.9783
B(  6-P , 18-H ) :   0.9929 B(  6-P , 19-H ) :   0.9929

E(0)                                       ...   -575.609044467
E(0)                                       ...   -575.609044467
E(CORR)(strong-pairs)                      ...     -1.270994072
E(CORR)(weak-pairs)                        ...     -0.001275491
E(CORR)(corrected)                         ...     -1.272269563
E(TOT)                                     ...   -576.881314030
E(CCSD(T))                                 ...   -576.933782362
FINAL SINGLE POINT ENERGY      -576.933782362283

DIPOLE MOMENT
-------------
                                X             Y             Z
Electronic contribution:      8.20505       0.00004      -1.53873
Nuclear contribution   :     -8.66486      -0.00005       1.87734
                        -----------------------------------------
Total Dipole Moment    :     -0.45981      -0.00001       0.33861
                        -----------------------------------------
Magnitude (a.u.)       :      0.57103
Magnitude (Debye)      :      1.45144

Rotational constants in cm-1:     0.137697     0.044832     0.036286
Rotational constants in MHz :  4128.058003  1344.028096  1087.813710

                             ****ORCA TERMINATED NORMALLY****
TOTAL RUN TIME: 0 days 0 hours 12 minutes 23 seconds 456 msec
