                         Program Version 4.1.x  -  STABLE  -
|  1> ! RHF DLPNO-CCSD(T) cc-pVTZ RIJK cc-pVTZ/JK cc-pVTZ/C
|  2> ! KDIIS SOSCF TightSCF TightPNO
|  3>
|  4> %pal nprocs 8 end
|  5>
|  6> %maxcore 8000
|  7>
|  8> %scf maxiter 300
|  9>      shift shift 0.2 erroff 0.1 end
| 10> end
| 11>
| 12> * xyzfile 0 1 cyclohexane_twb.xyz
| 13>
| 14>
| 15>                          ****END OF INPUT****

CARTESIAN COORDINATES (ANGSTROEM)
---------------------------------
  C      1.528920   -0.000010    0.000040
  C      0.666100   -1.228750    0.381620
  C     -0.666130   -1.228710   -0.381660
  C     -1.528910   -0.000000    0.000040
  C     -0.666100    1.228760    0.381630
  C      0.666110    1.228730   -0.381670
  H     -0.455760   -1.216770   -1.459750
  H     -1.222420   -2.154000   -0.191140
  H     -2.187650   -0.255070    0.839630
  H     -1.222400    2.154020    0.191040
  H      1.222370   -2.154030    0.191030
  H      0.455740    1.216740   -1.459750
  H      2.187820   -0.255050   -0.839440
  H      2.187650    0.255070    0.839640
  H     -0.455710    1.216890    1.459710
  H     -2.187790    0.255040   -0.839460
  H      1.222420    2.154000   -0.191170
  H      0.455730   -1.216900    1.459710

 Total Charge           Charge          ....    0
 Multiplicity           Mult            ....    1
 Number of Electrons    NEL             ....   48
 Basis Dimension        Dim             ....  348

ORBITAL ENERGIES
----------------

  NO   OCC          E(Eh)            E(eV)
   0   2.0000     -11.214652      -305.1662
   1   2.0000     -11.214527      -305.1628
   2   2.0000     -11.214151      -305.1526
   3   2.0000     -11.213840      -305.1441
   4   2.0000     -11.213546      -305.1361
   5   2.0000     -11.213379      -305.1315
   6   2.0000      -1.103997       -30.0413
   7   2.0000      -0.992555       -27.0088
   8   2.0000      -0.990651       -26.9570
   9   2.0000      -0.834717       -22.7138
  10   2.0000      -0.825540       -22.4641
  11   2.0000      -0.720339       -19.6014
  12   2.0000      -0.649020       -17.6607
  13   2.0000      -0.641999       -17.4697
  14   2.0000      -0.589893       -16.0518
  15   2.0000      -0.552928       -15.0459
  16   2.0000      -0.520491       -14.1633
  17   2.0000      -0.509997       -13.8777
  18   2.0000      -0.502449       -13.6723
  19   2.0000      -0.498104       -13.5541
  20   2.0000      -0.488979       -13.3058
  21   2.0000      -0.427671       -11.6375
  22   2.0000      -0.426025       -11.5927
  23   2.0000      -0.424163       -11.5421
  24   0.0000       0.136746         3.7211
  25   0.0000       0.157228         4.2784
  26   0.0000       0.168521         4.5857
  27   0.0000       0.172043         4.6815
  28   0.0000       0.199113         5.4181

MULLIKEN ATOMIC CHARGES
-----------------------
   0 C :   -0.206074
   1 C :   -0.189075
   2 C :   -0.189064
   3 C :   -0.206070
   4 C :   -0.189075
   5 C :   -0.189075
   6 H :    0.085438
   7 H :    0.108539
   8 H :    0.098126
   9 H :    0.108542
  10 H :    0.108540
  11 H :    0.085442
  12 H :    0.098128
  13 H :    0.098123
  14 H :    0.085444
  15 H :    0.098124
  16 H :    0.108545
  17 H :    0.085441
Sum of atomic charges:    0.0000000

LOEWDIN ATOMIC CHARGES
----------------------
   0 C :    0.063018
   1 C :    0.057238
   2 C :    0.057233
   3 C :    0.063010
   4 C :    0.057245
   5 C :    0.057247
   6 H :   -0.029246
   7 H :   -0.029508
   8 H :   -0.029988
   9 H :   -0.029514
  10 H :   -0.029513
  11 H :   -0.029252
  12 H :   -0.029988
  13 H :   -0.029988
  14 H :   -0.029248
  15 H :   -0.029984
  16 H :   -0.029515
  17 H :   -0.029246

  Mayer bond orders larger than 0.1
B(  0-C ,  1-C ) :   0.9378 B(  0-C ,  5-C ) :   0.9378 B(  0-C , 12-H ) :   0.9941
B(  0-C , 13-H ) :   0.9941 B(  1-C ,  2-C ) :   0.9466 B(  1-C , 10-H ) :   0.9949
B(  1-C , 17-H ) :   0.9872 B(  2-C ,  3-C ) :   0.9378 B(  2-C ,  6-H ) :   0.9872
B(  2-C ,  7-H ) :   0.9949 B(  3-C ,  4-C ) :   0.9378 B(  3-C ,  8-H ) :   0.9941
B(  3-C , 15-H ) :   0.9941 B(  4-C ,  5-C ) :   0.9466 B(  4-C ,  9-H ) :   0.9949
B(  4-C , 14-H ) :   0.9872 B(  5-C , 11-H ) :   0.9872 B(  5-C , 16-H ) :   0.9949

E(0)                                       ...   -234.274190240
E(0)                                       ...   -234.274190240
E(CORR)(strong-pairs)                      ...     -1.104362974
E(CORR)(weak-pairs)                        ...     -0.001056427
E(CORR)(corrected)                         ...     -1.105419400
E(TOT)                                     ...   -235.379609641
E(CCSD(T))                                 ...   -235.423371638
FINAL SINGLE POINT ENERGY      -235.423371638362

DIPOLE MOMENT
-------------
                                X             Y             Z
Electronic contribution:     -0.00002       0.00008      -0.00004
Nuclear contribution   :      0.00002      -0.00008       0.00004
                        -----------------------------------------
Total Dipole Moment    :     -0.00000       0.00000      -0.00000
                        -----------------------------------------
Magnitude (a.u.)       :      0.00000
Magnitude (Debye)      :      0.00001

Rotational constants in cm-1:     0.145256     0.137941     0.083824
Rotational constants in MHz :  4354.661850  4135.370656  2512.985405

                             ****ORCA TERMINATED NORMALLY****
TOTAL RUN TIME: 0 days 0 hours 7 minutes 43 seconds 918 msec
