                         Program Version 4.1.x  -  STABLE  -
|  1> ! RHF DLPNO-CCSD(T) cc-pVTZ RIJK cc-pVTZ/JK cc-pVTZ/C
|  2> ! KDIIS SOSCF TightSCF TightPNO
|  3>
|  4> %pal nprocs 8 end
|  5>
|  6> %maxcore 8000
|  7>
|  8> %scf maxiter 300
|  9>      shift shift 0.2 erroff 0.1 end
| 10> end
| 11>
| 12> * xyzfile 0 1 cyclohexane_sofa.xyz
| 13>
| 14>
| 15>                          ****END OF INPUT****

CARTESIAN COORDINATES (ANGSTROEM)
---------------------------------
  C      0.003900    1.491900    0.104200
  C      1.331800    0.718600   -0.010700
  C      1.234900   -0.792200   -0.251800
  C     -1.327500    0.725700   -0.010800
  C     -1.239500   -0.784900   -0.251900
  C     -0.004100   -1.392300    0.416100
  H      0.006100    2.106400    1.038400
  H      0.006600    2.253200   -0.713000
  H      2.005300    1.180300   -0.772400
  H      1.866100    0.848600    0.962000
  H      1.188700   -0.985500   -1.350100
  H      2.158600   -1.302400    0.114500
  H     -1.860500    0.858600    0.962200
  H     -1.998700    1.192000   -0.772000
  H     -2.165700   -1.291200    0.114700
  H     -1.193900   -0.979000   -1.350000
  H     -0.002800   -1.180500    1.511200
  H     -0.007100   -2.501700    0.283600

 Total Charge           Charge          ....    0
 Multiplicity           Mult            ....    1
 Number of Electrons    NEL             ....   48
 Basis Dimension        Dim             ....  348

ORBITAL ENERGIES
----------------

  NO   OCC          E(Eh)            E(eV)
   0   2.0000     -11.219409      -305.2956
   1   2.0000     -11.219206      -305.2901
   2   2.0000     -11.218904      -305.2819
   3   2.0000     -11.218578      -305.2730
   4   2.0000     -11.218025      -305.2580
   5   2.0000     -11.217857      -305.2534
   6   2.0000      -1.103237       -30.0206
   7   2.0000      -0.995300       -27.0835
   8   2.0000      -0.994500       -27.0617
   9   2.0000      -0.827717       -22.5233
  10   2.0000      -0.821571       -22.3561
  11   2.0000      -0.721307       -19.6278
  12   2.0000      -0.637521       -17.3478
  13   2.0000      -0.626546       -17.0492
  14   2.0000      -0.586666       -15.9640
  15   2.0000      -0.572755       -15.5854
  16   2.0000      -0.522477       -14.2173
  17   2.0000      -0.513859       -13.9828
  18   2.0000      -0.511709       -13.9243
  19   2.0000      -0.484108       -13.1733
  20   2.0000      -0.471457       -12.8290
  21   2.0000      -0.430063       -11.7026
  22   2.0000      -0.421334       -11.4651
  23   2.0000      -0.417746       -11.3674
  24   0.0000       0.130368         3.5475
  25   0.0000       0.159181         4.3315
  26   0.0000       0.168232         4.5778
  27   0.0000       0.171724         4.6728
  28   0.0000       0.200651         5.4600

MULLIKEN ATOMIC CHARGES
-----------------------
   0 C :   -0.183433
   1 C :   -0.181244
   2 C :   -0.172833
   3 C :   -0.181032
   4 C :   -0.172557
   5 C :   -0.173553
   6 H :    0.096426
   7 H :    0.084813
   8 H :    0.097955
   9 H :    0.080250
  10 H :    0.077589
  11 H :    0.097190
  12 H :    0.080242
  13 H :    0.097923
  14 H :    0.097034
  15 H :    0.077649
  16 H :    0.081262
  17 H :    0.096319
Sum of atomic charges:    0.0000000

LOEWDIN ATOMIC CHARGES
----------------------
   0 C :    0.045879
   1 C :    0.041864
   2 C :    0.037251
   3 C :    0.041487
   4 C :    0.037080
   5 C :    0.043002
   6 H :   -0.017437
   7 H :   -0.021410
   8 H :   -0.019989
   9 H :   -0.020782
  10 H :   -0.022811
  11 H :   -0.020235
  12 H :   -0.020664
  13 H :   -0.019806
  14 H :   -0.019998
  15 H :   -0.022780
  16 H :   -0.021318
  17 H :   -0.019333

  Mayer bond orders larger than 0.1
B(  0-C ,  1-C ) :   0.9220 B(  0-C ,  3-C ) :   0.9220 B(  0-C ,  6-H ) :   1.0011
B(  0-C ,  7-H ) :   0.9993 B(  1-C ,  2-C ) :   0.9460 B(  1-C ,  8-H ) :   0.9988
B(  1-C ,  9-H ) :   0.9951 B(  2-C ,  5-C ) :   0.9409 B(  2-C , 10-H ) :   0.9872
B(  2-C , 11-H ) :   0.9967 B(  3-C ,  4-C ) :   0.9461 B(  3-C , 12-H ) :   0.9951
B(  3-C , 13-H ) :   0.9988 B(  4-C ,  5-C ) :   0.9408 B(  4-C , 14-H ) :   0.9968
B(  4-C , 15-H ) :   0.9872 B(  5-C , 16-H ) :   0.9833 B(  5-C , 17-H ) :   0.9961

E(0)                                       ...   -234.258732846
E(0)                                       ...   -234.258732846
E(CORR)(strong-pairs)                      ...     -1.106492604
E(CORR)(weak-pairs)                        ...     -0.001045746
E(CORR)(corrected)                         ...     -1.107538351
E(TOT)                                     ...   -235.366271196
E(CCSD(T))                                 ...   -235.410375214
FINAL SINGLE POINT ENERGY      -235.410375214328

DIPOLE MOMENT
-------------
                                X             Y             Z
Electronic contribution:     -0.00287      -0.21702      -0.02719
Nuclear contribution   :      0.00297       0.21305       0.03125
                        -----------------------------------------
Total Dipole Moment    :      0.00010      -0.00398       0.00405
                        -----------------------------------------
Magnitude (a.u.)       :      0.00568
Magnitude (Debye)      :      0.01444

Rotational constants in cm-1:     0.141763     0.139212     0.079882
Rotational constants in MHz :  4249.962572  4173.482625  2394.796084

                             ****ORCA TERMINATED NORMALLY****
TOTAL RUN TIME: 0 days 0 hours 6 minutes 44 seconds 908 msec
