                         Program Version 4.1.x  -  STABLE  -
|  1> ! RHF DLPNO-CCSD(T) cc-pVTZ RIJK cc-pVTZ/JK cc-pVTZ/C
|  2> ! KDIIS SOSCF TightSCF TightPNO
|  3>
|  4> %pal nprocs 8 end
|  5>
|  6> %maxcore 8000
|  7>
|  8> %scf maxiter 300
|  9>      shift shift 0.2 erroff 0.1 end
| 10> end
| 11>
| 12> * xyzfile 0 1 cyclooctane_BC.xyz
| 13>
| 14>
| 15>                          ****END OF INPUT****

CARTESIAN COORDINATES (ANGSTROEM)
---------------------------------
  C     -1.197740   -1.329220   -0.318160
  C     -1.944400   -0.000090   -0.085850
  C     -1.197860    1.329130   -0.318120
  C     -0.013380    1.618220    0.635780
  C      1.394020    1.315850    0.075540
  C      1.586560    0.000060   -0.695020
  C      1.394160   -1.315720    0.075590
  C     -0.013240   -1.618240    0.635770
  H     -0.863380   -1.391530   -1.363150
  H     -1.940500   -2.128950   -0.202910
  H     -0.027140   -2.681070    0.908580
  H     -0.170910   -1.078010    1.576530
  H     -2.834100   -0.000100   -0.730710
  H     -2.325300   -0.000110    0.946670
  H      1.668320   -2.131710   -0.607940
  H      2.118490   -1.362000    0.901390
  H     -0.863540    1.391520   -1.363100
  H     -1.940690    2.128780   -0.202790
  H     -0.027380    2.681030    0.908670
  H     -0.170960    1.077910    1.576510
  H      0.933190    0.000010   -1.577040
  H      2.608740    0.000120   -1.097080
  H      1.668050    2.131870   -0.608040
  H      2.118400    1.362260    0.901290

 Total Charge           Charge          ....    0
 Multiplicity           Mult            ....    1
 Number of Electrons    NEL             ....   64
 Basis Dimension        Dim             ....  464

ORBITAL ENERGIES
----------------

  NO   OCC          E(Eh)            E(eV)
   0   2.0000     -11.215588      -305.1917
   1   2.0000     -11.214634      -305.1657
   2   2.0000     -11.214630      -305.1656
   3   2.0000     -11.214503      -305.1621
   4   2.0000     -11.214415      -305.1597
   5   2.0000     -11.213252      -305.1281
   6   2.0000     -11.213243      -305.1279
   7   2.0000     -11.212629      -305.1111
   8   2.0000      -1.096544       -29.8385
   9   2.0000      -1.035143       -28.1677
  10   2.0000      -1.033173       -28.1141
  11   2.0000      -0.916539       -24.9403
  12   2.0000      -0.912914       -24.8416
  13   2.0000      -0.791528       -21.5386
  14   2.0000      -0.789585       -21.4857
  15   2.0000      -0.734492       -19.9865
  16   2.0000      -0.640953       -17.4412
  17   2.0000      -0.627477       -17.0745
  18   2.0000      -0.594865       -16.1871
  19   2.0000      -0.588463       -16.0129
  20   2.0000      -0.571595       -15.5539
  21   2.0000      -0.565426       -15.3860
  22   2.0000      -0.549150       -14.9431
  23   2.0000      -0.506682       -13.7875
  24   2.0000      -0.484508       -13.1841
  25   2.0000      -0.480736       -13.0815
  26   2.0000      -0.468081       -12.7371
  27   2.0000      -0.464617       -12.6429
  28   2.0000      -0.459447       -12.5022
  29   2.0000      -0.433389       -11.7931
  30   2.0000      -0.425835       -11.5876
  31   2.0000      -0.417474       -11.3600
  32   0.0000       0.137765         3.7488
  33   0.0000       0.152620         4.1530
  34   0.0000       0.157573         4.2878
  35   0.0000       0.160340         4.3631
  36   0.0000       0.192197         5.2300

MULLIKEN ATOMIC CHARGES
-----------------------
   0 C :   -0.210261
   1 C :   -0.184945
   2 C :   -0.210266
   3 C :   -0.214956
   4 C :   -0.183189
   5 C :   -0.219869
   6 C :   -0.183191
   7 C :   -0.214964
   8 H :    0.094378
   9 H :    0.113223
  10 H :    0.114550
  11 H :    0.093456
  12 H :    0.105694
  13 H :    0.087135
  14 H :    0.098892
  15 H :    0.096121
  16 H :    0.094388
  17 H :    0.113220
  18 H :    0.114550
  19 H :    0.093452
  20 H :    0.090893
  21 H :    0.116688
  22 H :    0.098880
  23 H :    0.096121
Sum of atomic charges:   -0.0000000

LOEWDIN ATOMIC CHARGES
----------------------
   0 C :    0.057676
   1 C :    0.050482
   2 C :    0.057679
   3 C :    0.057447
   4 C :    0.053676
   5 C :    0.047513
   6 C :    0.053684
   7 C :    0.057456
   8 H :   -0.029780
   9 H :   -0.024844
  10 H :   -0.026206
  11 H :   -0.033215
  12 H :   -0.024406
  13 H :   -0.026817
  14 H :   -0.024212
  15 H :   -0.026639
  16 H :   -0.029786
  17 H :   -0.024843
  18 H :   -0.026203
  19 H :   -0.033212
  20 H :   -0.032320
  21 H :   -0.022288
  22 H :   -0.024204
  23 H :   -0.026640

  Mayer bond orders larger than 0.1
B(  0-C ,  1-C ) :   0.9502 B(  0-C ,  7-C ) :   0.9246 B(  0-C ,  8-H ) :   0.9824
B(  0-C ,  9-H ) :   0.9963 B(  1-C ,  2-C ) :   0.9502 B(  1-C , 12-H ) :   0.9954
B(  1-C , 13-H ) :   0.9826 B(  2-C ,  3-C ) :   0.9246 B(  2-C , 16-H ) :   0.9824
B(  2-C , 17-H ) :   0.9963 B(  3-C ,  4-C ) :   0.9479 B(  3-C , 18-H ) :   0.9961
B(  3-C , 19-H ) :   0.9823 B(  4-C ,  5-C ) :   0.9503 B(  4-C , 22-H ) :   0.9915
B(  4-C , 23-H ) :   0.9903 B(  5-C ,  6-C ) :   0.9503 B(  5-C , 20-H ) :   0.9783
B(  5-C , 21-H ) :   0.9928 B(  6-C ,  7-C ) :   0.9479 B(  6-C , 14-H ) :   0.9915
B(  6-C , 15-H ) :   0.9903 B(  7-C , 10-H ) :   0.9961 B(  7-C , 11-H ) :   0.9823

E(0)                                       ...   -312.358728390
E(0)                                       ...   -312.358728390
E(CORR)(strong-pairs)                      ...     -1.477260410
E(CORR)(weak-pairs)                        ...     -0.001552158
E(CORR)(corrected)                         ...     -1.478812568
E(TOT)                                     ...   -313.837540958
E(CCSD(T))                                 ...   -313.896666194
FINAL SINGLE POINT ENERGY      -313.896666194228

DIPOLE MOMENT
-------------
                                X             Y             Z
Electronic contribution:      0.04071      -0.00005       0.02810
Nuclear contribution   :     -0.05218       0.00003      -0.03549
                        -----------------------------------------
Total Dipole Moment    :     -0.01147      -0.00001      -0.00739
                        -----------------------------------------
Magnitude (a.u.)       :      0.01364
Magnitude (Debye)      :      0.03467

Rotational constants in cm-1:     0.074615     0.070796     0.043047
Rotational constants in MHz :  2236.902774  2122.422482  1290.524869

                             ****ORCA TERMINATED NORMALLY****
TOTAL RUN TIME: 0 days 0 hours 18 minutes 37 seconds 970 msec
