                         Program Version 4.1.x  -  STABLE  -
|  1> ! RHF DLPNO-CCSD(T) cc-pVTZ RIJK cc-pVTZ/JK cc-pVTZ/C
|  2> ! KDIIS SOSCF TightSCF TightPNO
|  3>
|  4> %pal nprocs 8 end
|  5>
|  6> %maxcore 8000
|  7>
|  8> %scf maxiter 300
|  9>      shift shift 0.2 erroff 0.1 end
| 10> end
| 11>
| 12> * xyzfile 0 1 cyclohexane_ch.xyz
| 13>
| 14>
| 15>                          ****END OF INPUT****

CARTESIAN COORDINATES (ANGSTROEM)
---------------------------------
  C      1.418430    0.380170    0.228410
  C      1.038650   -1.038010   -0.228330
  C     -0.379960   -1.418350    0.228260
  C     -1.418430   -0.380180   -0.228410
  C     -1.038660    1.038010    0.228300
  C      0.379980    1.418350   -0.228230
  H     -0.398830   -1.487530    1.326130
  H     -0.646680   -2.413030   -0.150500
  H     -1.487870   -0.398680   -1.326240
  H     -1.766530    1.766170   -0.151150
  H      1.766560   -1.766180    0.151020
  H      0.398870    1.487560   -1.326090
  H      2.413010    0.646440   -0.150820
  H      1.487820    0.398640    1.326250
  H     -1.089880    1.089270    1.326120
  H     -2.413010   -0.646460    0.150860
  H      0.646690    2.413040    0.150550
  H      1.089790   -1.089190   -1.326170

 Total Charge           Charge          ....    0
 Multiplicity           Mult            ....    1
 Number of Electrons    NEL             ....   48
 Basis Dimension        Dim             ....  348

ORBITAL ENERGIES
----------------

  NO   OCC          E(Eh)            E(eV)
   0   2.0000     -11.214650      -305.1661
   1   2.0000     -11.214382      -305.1589
   2   2.0000     -11.214364      -305.1583
   3   2.0000     -11.213788      -305.1427
   4   2.0000     -11.213768      -305.1421
   5   2.0000     -11.213471      -305.1341
   6   2.0000      -1.105910       -30.0934
   7   2.0000      -0.995829       -27.0979
   8   2.0000      -0.995681       -27.0939
   9   2.0000      -0.824218       -22.4281
  10   2.0000      -0.824128       -22.4257
  11   2.0000      -0.745572       -20.2881
  12   2.0000      -0.642438       -17.4816
  13   2.0000      -0.603633       -16.4257
  14   2.0000      -0.591526       -16.0962
  15   2.0000      -0.591433       -16.0937
  16   2.0000      -0.521308       -14.1855
  17   2.0000      -0.521211       -14.1829
  18   2.0000      -0.509506       -13.8644
  19   2.0000      -0.477606       -12.9963
  20   2.0000      -0.477553       -12.9949
  21   2.0000      -0.446889       -12.1605
  22   2.0000      -0.424306       -11.5460
  23   2.0000      -0.424210       -11.5433
  24   0.0000       0.140703         3.8287
  25   0.0000       0.157432         4.2839
  26   0.0000       0.167345         4.5537
  27   0.0000       0.167357         4.5540
  28   0.0000       0.208420         5.6714

MULLIKEN ATOMIC CHARGES
-----------------------
   0 C :   -0.190677
   1 C :   -0.190775
   2 C :   -0.190815
   3 C :   -0.190681
   4 C :   -0.190782
   5 C :   -0.190815
   6 H :    0.084670
   7 H :    0.106078
   8 H :    0.084712
   9 H :    0.106037
  10 H :    0.106042
  11 H :    0.084672
  12 H :    0.106062
  13 H :    0.084701
  14 H :    0.084730
  15 H :    0.106052
  16 H :    0.106072
  17 H :    0.084718
Sum of atomic charges:   -0.0000000

LOEWDIN ATOMIC CHARGES
----------------------
   0 C :    0.055903
   1 C :    0.056000
   2 C :    0.056080
   3 C :    0.055906
   4 C :    0.056002
   5 C :    0.056078
   6 H :   -0.027823
   7 H :   -0.028204
   8 H :   -0.027805
   9 H :   -0.028174
  10 H :   -0.028176
  11 H :   -0.027828
  12 H :   -0.028168
  13 H :   -0.027802
  14 H :   -0.027819
  15 H :   -0.028161
  16 H :   -0.028197
  17 H :   -0.027813

  Mayer bond orders larger than 0.1
B(  0-C ,  1-C ) :   0.9480 B(  0-C ,  5-C ) :   0.9480 B(  0-C , 12-H ) :   0.9951
B(  0-C , 13-H ) :   0.9844 B(  1-C ,  2-C ) :   0.9481 B(  1-C , 10-H ) :   0.9951
B(  1-C , 17-H ) :   0.9844 B(  2-C ,  3-C ) :   0.9480 B(  2-C ,  6-H ) :   0.9844
B(  2-C ,  7-H ) :   0.9951 B(  3-C ,  4-C ) :   0.9480 B(  3-C ,  8-H ) :   0.9844
B(  3-C , 15-H ) :   0.9951 B(  4-C ,  5-C ) :   0.9481 B(  4-C ,  9-H ) :   0.9951
B(  4-C , 14-H ) :   0.9844 B(  5-C , 11-H ) :   0.9844 B(  5-C , 16-H ) :   0.9951

E(0)                                       ...   -234.285076791
E(0)                                       ...   -234.285076791
E(CORR)(strong-pairs)                      ...     -1.103386665
E(CORR)(weak-pairs)                        ...     -0.001061878
E(CORR)(corrected)                         ...     -1.104448543
E(TOT)                                     ...   -235.389525335
E(CCSD(T))                                 ...   -235.433162549
FINAL SINGLE POINT ENERGY      -235.433162549208

DIPOLE MOMENT
-------------
                                X             Y             Z
Electronic contribution:      0.00006      -0.00006       0.00003
Nuclear contribution   :     -0.00006       0.00006      -0.00003
                        -----------------------------------------
Total Dipole Moment    :     -0.00000      -0.00000      -0.00001
                        -----------------------------------------
Magnitude (a.u.)       :      0.00001
Magnitude (Debye)      :      0.00002

Rotational constants in cm-1:     0.142554     0.142504     0.081246
Rotational constants in MHz :  4273.660287  4272.155002  2435.702047

                             ****ORCA TERMINATED NORMALLY****
TOTAL RUN TIME: 0 days 0 hours 7 minutes 52 seconds 117 msec
