                         Program Version 4.1.x  -  STABLE  -
|  1> ! RHF DLPNO-CCSD(T) cc-pVTZ RIJK cc-pVTZ/JK cc-pVTZ/C
|  2> ! KDIIS SOSCF TightSCF TightPNO
|  3>
|  4> %pal nprocs 8 end
|  5>
|  6> %maxcore 8000
|  7>
|  8> %scf maxiter 300
|  9>      shift shift 0.2 erroff 0.1 end
| 10> end
| 11>
| 12> * xyzfile 0 1 cyclooctane_tcc.xyz
| 13>
| 14>
| 15>                          ****END OF INPUT****

CARTESIAN COORDINATES (ANGSTROEM)
---------------------------------
  C      0.735010   -1.704970    0.300130
  C      1.755090   -0.697740   -0.263270
  C      1.733300    0.748380    0.263820
  C      0.684370    1.725030   -0.300640
  C     -0.735030    1.704980    0.300120
  C     -1.755100    0.697740   -0.263270
  C     -1.733300   -0.748380    0.263820
  C     -0.684360   -1.725030   -0.300640
  H      1.160630   -2.704390    0.140430
  H      0.667900   -1.585680    1.391800
  H     -1.080780   -2.736560   -0.142120
  H     -0.620600   -1.602640   -1.392170
  H      1.684490   -0.685570   -1.361320
  H      2.752550   -1.098110   -0.037860
  H     -2.718570   -1.178310    0.039280
  H     -1.662230   -0.734110    1.361820
  H      2.718570    1.178310    0.039250
  H      1.662250    0.734130    1.361810
  H      1.080790    2.736550   -0.142110
  H      0.620630    1.602620   -1.392170
  H     -1.684480    0.685520   -1.361320
  H     -2.752560    1.098110   -0.037890
  H     -1.160640    2.704400    0.140410
  H     -0.667920    1.585710    1.391800

 Total Charge           Charge          ....    0
 Multiplicity           Mult            ....    1
 Number of Electrons    NEL             ....   64
 Basis Dimension        Dim             ....  464

ORBITAL ENERGIES
----------------

  NO   OCC          E(Eh)            E(eV)
   0   2.0000     -11.214516      -305.1625
   1   2.0000     -11.214364      -305.1583
   2   2.0000     -11.214356      -305.1581
   3   2.0000     -11.213962      -305.1474
   4   2.0000     -11.213961      -305.1474
   5   2.0000     -11.213541      -305.1360
   6   2.0000     -11.213537      -305.1359
   7   2.0000     -11.213358      -305.1310
   8   2.0000      -1.092706       -29.7340
   9   2.0000      -1.037755       -28.2387
  10   2.0000      -1.037158       -28.2225
  11   2.0000      -0.915537       -24.9130
  12   2.0000      -0.915510       -24.9123
  13   2.0000      -0.784324       -21.3425
  14   2.0000      -0.782255       -21.2862
  15   2.0000      -0.753477       -20.5032
  16   2.0000      -0.638732       -17.3808
  17   2.0000      -0.611780       -16.6474
  18   2.0000      -0.610368       -16.6090
  19   2.0000      -0.576202       -15.6793
  20   2.0000      -0.575546       -15.6614
  21   2.0000      -0.555079       -15.1045
  22   2.0000      -0.534410       -14.5420
  23   2.0000      -0.534191       -14.5361
  24   2.0000      -0.501250       -13.6397
  25   2.0000      -0.460678       -12.5357
  26   2.0000      -0.460670       -12.5355
  27   2.0000      -0.460571       -12.5328
  28   2.0000      -0.459695       -12.5089
  29   2.0000      -0.451342       -12.2816
  30   2.0000      -0.418479       -11.3874
  31   2.0000      -0.418256       -11.3813
  32   0.0000       0.137568         3.7434
  33   0.0000       0.153081         4.1656
  34   0.0000       0.159694         4.3455
  35   0.0000       0.160882         4.3778
  36   0.0000       0.191982         5.2241

MULLIKEN ATOMIC CHARGES
-----------------------
   0 C :   -0.194486
   1 C :   -0.192762
   2 C :   -0.192788
   3 C :   -0.194552
   4 C :   -0.194488
   5 C :   -0.192758
   6 C :   -0.192788
   7 C :   -0.194549
   8 H :    0.106357
   9 H :    0.087711
  10 H :    0.106369
  11 H :    0.087723
  12 H :    0.087299
  13 H :    0.105907
  14 H :    0.105903
  15 H :    0.087314
  16 H :    0.105898
  17 H :    0.087322
  18 H :    0.106373
  19 H :    0.087722
  20 H :    0.087295
  21 H :    0.105912
  22 H :    0.106359
  23 H :    0.087707
Sum of atomic charges:   -0.0000000

LOEWDIN ATOMIC CHARGES
----------------------
   0 C :    0.052305
   1 C :    0.050768
   2 C :    0.050805
   3 C :    0.052345
   4 C :    0.052309
   5 C :    0.050765
   6 C :    0.050808
   7 C :    0.052339
   8 H :   -0.023025
   9 H :   -0.028800
  10 H :   -0.023033
  11 H :   -0.028797
  12 H :   -0.028598
  13 H :   -0.022681
  14 H :   -0.022685
  15 H :   -0.028600
  16 H :   -0.022680
  17 H :   -0.028604
  18 H :   -0.023038
  19 H :   -0.028797
  20 H :   -0.028597
  21 H :   -0.022684
  22 H :   -0.023028
  23 H :   -0.028798

  Mayer bond orders larger than 0.1
B(  0-C ,  1-C ) :   0.9394 B(  0-C ,  7-C ) :   0.9371 B(  0-C ,  8-H ) :   0.9991
B(  0-C ,  9-H ) :   0.9825 B(  1-C ,  2-C ) :   0.9417 B(  1-C , 12-H ) :   0.9827
B(  1-C , 13-H ) :   0.9985 B(  2-C ,  3-C ) :   0.9394 B(  2-C , 16-H ) :   0.9985
B(  2-C , 17-H ) :   0.9827 B(  3-C ,  4-C ) :   0.9371 B(  3-C , 18-H ) :   0.9991
B(  3-C , 19-H ) :   0.9825 B(  4-C ,  5-C ) :   0.9394 B(  4-C , 22-H ) :   0.9991
B(  4-C , 23-H ) :   0.9825 B(  5-C ,  6-C ) :   0.9417 B(  5-C , 20-H ) :   0.9827
B(  5-C , 21-H ) :   0.9985 B(  6-C ,  7-C ) :   0.9394 B(  6-C , 14-H ) :   0.9985
B(  6-C , 15-H ) :   0.9827 B(  7-C , 10-H ) :   0.9991 B(  7-C , 11-H ) :   0.9825

E(0)                                       ...   -312.358281921
E(0)                                       ...   -312.358281921
E(CORR)(strong-pairs)                      ...     -1.475107879
E(CORR)(weak-pairs)                        ...     -0.001480914
E(CORR)(corrected)                         ...     -1.476588793
E(TOT)                                     ...   -313.834870714
E(CCSD(T))                                 ...   -313.893643216
FINAL SINGLE POINT ENERGY      -313.893643215603

DIPOLE MOMENT
-------------
                                X             Y             Z
Electronic contribution:     -0.00006       0.00003       0.00040
Nuclear contribution   :      0.00006      -0.00003      -0.00040
                        -----------------------------------------
Total Dipole Moment    :     -0.00000       0.00000      -0.00000
                        -----------------------------------------
Magnitude (a.u.)       :      0.00000
Magnitude (Debye)      :      0.00001

Rotational constants in cm-1:     0.071171     0.069760     0.038984
Rotational constants in MHz :  2133.654899  2091.354060  1168.720002

                             ****ORCA TERMINATED NORMALLY****
TOTAL RUN TIME: 0 days 0 hours 21 minutes 1 seconds 185 msec
