                         Program Version 4.1.x  -  STABLE  -
|  1> ! RHF DLPNO-CCSD(T) cc-pVTZ RIJK cc-pVTZ/JK cc-pVTZ/C
|  2> ! KDIIS SOSCF TightSCF TightPNO
|  3>
|  4> %pal nprocs 8 end
|  5>
|  6> %maxcore 8000
|  7>
|  8> %scf maxiter 300
|  9>      shift shift 0.2 erroff 0.1 end
| 10> end
| 11>
| 12> * xyzfile 0 1 cyclohexylphosphine_ax.xyz
| 13>
| 14>
| 15>                          ****END OF INPUT****

CARTESIAN COORDINATES (ANGSTROEM)
---------------------------------
  C     -0.678370    0.000020    0.810470
  C      0.201460   -1.269460    0.760700
  C      1.199910   -1.269610   -0.409820
  C      2.066050   -0.000010   -0.408020
  C      1.199930    1.269600   -0.409810
  C      0.201480    1.269460    0.760700
  P     -1.963310   -0.000020   -0.593790
  H      1.834210   -2.162730   -0.351060
  H      0.656050   -1.335440   -1.361540
  H      2.739960   -0.000010   -1.273540
  H      2.706370   -0.000010    0.486880
  H      0.656050    1.335450   -1.361540
  H      1.834240    2.162720   -0.351060
  H      0.765570   -1.322550    1.704110
  H     -0.425540   -2.169600    0.728960
  H     -0.425490    2.169630    0.728980
  H      0.765580    1.322500    1.704110
  H     -1.234090    0.000020    1.754450
  H     -2.783060   -1.038290   -0.063490
  H     -2.782870    1.038560   -0.063780

 Total Charge           Charge          ....    0
 Multiplicity           Mult            ....    1
 Number of Electrons    NEL             ....   64
 Basis Dimension        Dim             ....  396

ORBITAL ENERGIES
----------------

  NO   OCC          E(Eh)            E(eV)
   0   2.0000     -79.931175     -2175.0379
   1   2.0000     -11.237000      -305.7743
   2   2.0000     -11.224807      -305.4425
   3   2.0000     -11.224784      -305.4419
   4   2.0000     -11.218286      -305.2651
   5   2.0000     -11.217923      -305.2552
   6   2.0000     -11.217442      -305.2421
   7   2.0000      -7.473406      -203.3617
   8   2.0000      -5.367066      -146.0453
   9   2.0000      -5.366736      -146.0363
  10   2.0000      -5.365790      -146.0106
  11   2.0000      -1.114063       -30.3152
  12   2.0000      -1.008017       -27.4295
  13   2.0000      -1.003078       -27.2951
  14   2.0000      -0.859298       -23.3827
  15   2.0000      -0.832429       -22.6515
  16   2.0000      -0.797900       -21.7120
  17   2.0000      -0.718774       -19.5588
  18   2.0000      -0.649746       -17.6805
  19   2.0000      -0.613984       -16.7073
  20   2.0000      -0.603024       -16.4091
  21   2.0000      -0.577875       -15.7248
  22   2.0000      -0.531904       -14.4739
  23   2.0000      -0.531803       -14.4711
  24   2.0000      -0.526876       -14.3370
  25   2.0000      -0.497828       -13.5466
  26   2.0000      -0.477236       -12.9863
  27   2.0000      -0.467506       -12.7215
  28   2.0000      -0.443000       -12.0546
  29   2.0000      -0.430814       -11.7230
  30   2.0000      -0.427333       -11.6283
  31   2.0000      -0.350306        -9.5323
  32   0.0000       0.124615         3.3910
  33   0.0000       0.153456         4.1757
  34   0.0000       0.154037         4.1916
  35   0.0000       0.161136         4.3847
  36   0.0000       0.173893         4.7319

MULLIKEN ATOMIC CHARGES
-----------------------
   0 C :   -0.166502
   1 C :   -0.212187
   2 C :   -0.197409
   3 C :   -0.190954
   4 C :   -0.197404
   5 C :   -0.212179
   6 P :   -0.015008
   7 H :    0.112182
   8 H :    0.103211
   9 H :    0.109599
  10 H :    0.084391
  11 H :    0.103197
  12 H :    0.112182
  13 H :    0.098653
  14 H :    0.117050
  15 H :    0.117050
  16 H :    0.098654
  17 H :    0.130184
  18 H :    0.002647
  19 H :    0.002642
Sum of atomic charges:    0.0000000

LOEWDIN ATOMIC CHARGES
----------------------
   0 C :   -0.116377
   1 C :    0.040580
   2 C :    0.056184
   3 C :    0.057029
   4 C :    0.056176
   5 C :    0.040571
   6 P :    0.424932
   7 H :   -0.026561
   8 H :   -0.029235
   9 H :   -0.026614
  10 H :   -0.027807
  11 H :   -0.029226
  12 H :   -0.026559
  13 H :   -0.024031
  14 H :   -0.027275
  15 H :   -0.027269
  16 H :   -0.024032
  17 H :   -0.040462
  18 H :   -0.125012
  19 H :   -0.125012

  Mayer bond orders larger than 0.1
B(  0-C ,  1-C ) :   0.9405 B(  0-C ,  5-C ) :   0.9405 B(  0-C ,  6-P ) :   0.9845
B(  0-C , 17-H ) :   0.9929 B(  1-C ,  2-C ) :   0.9445 B(  1-C , 13-H ) :   0.9833
B(  1-C , 14-H ) :   0.9931 B(  2-C ,  3-C ) :   0.9476 B(  2-C ,  7-H ) :   0.9930
B(  2-C ,  8-H ) :   0.9793 B(  3-C ,  4-C ) :   0.9476 B(  3-C ,  9-H ) :   0.9948
B(  3-C , 10-H ) :   0.9859 B(  4-C ,  5-C ) :   0.9445 B(  4-C , 11-H ) :   0.9793
B(  4-C , 12-H ) :   0.9930 B(  5-C , 15-H ) :   0.9931 B(  5-C , 16-H ) :   0.9833
B(  6-P , 18-H ) :   0.9922 B(  6-P , 19-H ) :   0.9922

E(0)                                       ...   -575.605265391
E(0)                                       ...   -575.605265391
E(CORR)(strong-pairs)                      ...     -1.272149971
E(CORR)(weak-pairs)                        ...     -0.001288275
E(CORR)(corrected)                         ...     -1.273438246
E(TOT)                                     ...   -576.878703636
E(CCSD(T))                                 ...   -576.931349439
FINAL SINGLE POINT ENERGY      -576.931349439171

DIPOLE MOMENT
-------------
                                X             Y             Z
Electronic contribution:     -6.16985      -0.00025      -2.49253
Nuclear contribution   :      6.39229       0.00029       2.94634
                        -----------------------------------------
Total Dipole Moment    :      0.22245       0.00004       0.45381
                        -----------------------------------------
Magnitude (a.u.)       :      0.50540
Magnitude (Debye)      :      1.28462

Rotational constants in cm-1:     0.105334     0.054858     0.047016
Rotational constants in MHz :  3157.843130  1644.604745  1409.502208

                             ****ORCA TERMINATED NORMALLY****
TOTAL RUN TIME: 0 days 0 hours 12 minutes 24 seconds 381 msec
