                         Program Version 4.1.x  -  STABLE  -
|  1> ! RHF DLPNO-CCSD(T) cc-pVTZ RIJK cc-pVTZ/JK cc-pVTZ/C
|  2> ! KDIIS SOSCF TightSCF TightPNO
|  3>
|  4> %pal nprocs 8 end
|  5>
|  6> %maxcore 8000
|  7>
|  8> %scf maxiter 300
|  9>      shift shift 0.2 erroff 0.1 end
| 10> end
| 11>
| 12> * xyzfile 0 1 cyclohexene_halfchair.xyz
| 13>
| 14>
| 15>                          ****END OF INPUT****

CARTESIAN COORDINATES (ANGSTROEM)
---------------------------------
  C     -0.698900   -1.193190    0.318230
  C     -1.499790    0.047640   -0.110570
  C     -0.667530    1.306940   -0.056850
  C      0.667550    1.306940    0.056840
  C      1.499790    0.047630    0.110610
  C      0.698900   -1.193170   -0.318260
  H      1.198390    2.256420    0.112410
  H     -1.198360    2.256420   -0.112510
  H     -1.888320   -0.088760   -1.132080
  H     -2.386660    0.164670    0.526460
  H      1.888170   -0.088780    1.132180
  H      2.386730    0.164620   -0.526310
  H      1.244940   -2.106030   -0.052090
  H      0.594630   -1.194590   -1.412140
  H     -0.594630   -1.194670    1.412120
  H     -1.244920   -2.106030    0.051980

 Total Charge           Charge          ....    0
 Multiplicity           Mult            ....    1
 Number of Electrons    NEL             ....   46
 Basis Dimension        Dim             ....  320

ORBITAL ENERGIES
----------------

  NO   OCC          E(Eh)            E(eV)
   0   2.0000     -11.222010      -305.3664
   1   2.0000     -11.221974      -305.3654
   2   2.0000     -11.220616      -305.3285
   3   2.0000     -11.218993      -305.2843
   4   2.0000     -11.218225      -305.2634
   5   2.0000     -11.217631      -305.2473
   6   2.0000      -1.113149       -30.2903
   7   2.0000      -1.000555       -27.2265
   8   2.0000      -0.998118       -27.1602
   9   2.0000      -0.842756       -22.9326
  10   2.0000      -0.813318       -22.1315
  11   2.0000      -0.695374       -18.9221
  12   2.0000      -0.662934       -18.0393
  13   2.0000      -0.610802       -16.6208
  14   2.0000      -0.580320       -15.7913
  15   2.0000      -0.563212       -15.3258
  16   2.0000      -0.535310       -14.5665
  17   2.0000      -0.526737       -14.3332
  18   2.0000      -0.521656       -14.1950
  19   2.0000      -0.462508       -12.5855
  20   2.0000      -0.449012       -12.2183
  21   2.0000      -0.435164       -11.8414
  22   2.0000      -0.339226        -9.2308
  23   0.0000       0.136585         3.7167
  24   0.0000       0.166520         4.5312
  25   0.0000       0.167898         4.5687
  26   0.0000       0.173401         4.7185
  27   0.0000       0.181688         4.9440

MULLIKEN ATOMIC CHARGES
-----------------------
   0 C :   -0.188341
   1 C :   -0.141710
   2 C :   -0.205320
   3 C :   -0.205322
   4 C :   -0.141710
   5 C :   -0.188340
   6 H :    0.149796
   7 H :    0.149795
   8 H :    0.093497
   9 H :    0.099658
  10 H :    0.093493
  11 H :    0.099666
  12 H :    0.103591
  13 H :    0.088828
  14 H :    0.088825
  15 H :    0.103596
Sum of atomic charges:    0.0000000

LOEWDIN ATOMIC CHARGES
----------------------
   0 C :    0.062345
   1 C :    0.046483
   2 C :    0.022614
   3 C :    0.022615
   4 C :    0.046483
   5 C :    0.062342
   6 H :   -0.033733
   7 H :   -0.033733
   8 H :   -0.022325
   9 H :   -0.022396
  10 H :   -0.022322
  11 H :   -0.022401
  12 H :   -0.028105
  13 H :   -0.024882
  14 H :   -0.024878
  15 H :   -0.028108

  Mayer bond orders larger than 0.1
B(  0-C ,  1-C ) :   0.9501 B(  0-C ,  5-C ) :   0.9449 B(  0-C , 14-H ) :   0.9848
B(  0-C , 15-H ) :   0.9951 B(  1-C ,  2-C ) :   0.9432 B(  1-C ,  8-H ) :   0.9786
B(  1-C ,  9-H ) :   0.9949 B(  2-C ,  3-C ) :   1.8797 B(  2-C ,  7-H ) :   0.9738
B(  3-C ,  4-C ) :   0.9432 B(  3-C ,  6-H ) :   0.9738 B(  4-C ,  5-C ) :   0.9502
B(  4-C , 10-H ) :   0.9786 B(  4-C , 11-H ) :   0.9949 B(  5-C , 12-H ) :   0.9951
B(  5-C , 13-H ) :   0.9848

E(0)                                       ...   -233.096971740
E(0)                                       ...   -233.096971740
E(CORR)(strong-pairs)                      ...     -1.061026122
E(CORR)(weak-pairs)                        ...     -0.000987414
E(CORR)(corrected)                         ...     -1.062013536
E(TOT)                                     ...   -234.158985276
E(CCSD(T))                                 ...   -234.203861345
FINAL SINGLE POINT ENERGY      -234.203861345447

DIPOLE MOMENT
-------------
                                X             Y             Z
Electronic contribution:      0.00005       1.91751      -0.00003
Nuclear contribution   :     -0.00005      -2.03682       0.00002
                        -----------------------------------------
Total Dipole Moment    :     -0.00000      -0.11931      -0.00002
                        -----------------------------------------
Magnitude (a.u.)       :      0.11931
Magnitude (Debye)      :      0.30327

Rotational constants in cm-1:     0.156973     0.150683     0.084596
Rotational constants in MHz :  4705.935842  4517.363961  2536.130368

                             ****ORCA TERMINATED NORMALLY****
TOTAL RUN TIME: 0 days 0 hours 6 minutes 36 seconds 979 msec
