                         Program Version 4.1.x  -  STABLE  -
|  1> ! RHF DLPNO-CCSD(T) cc-pVTZ RIJK cc-pVTZ/JK cc-pVTZ/C
|  2> ! KDIIS SOSCF TightSCF TightPNO
|  3>
|  4> %pal nprocs 8 end
|  5>
|  6> %maxcore 8000
|  7>
|  8> %scf maxiter 300
|  9>      shift shift 0.2 erroff 0.1 end
| 10> end
| 11>
| 12> * xyzfile 0 1 cyclohexene_hc.xyz
| 13>
| 14>
| 15>                          ****END OF INPUT****

CARTESIAN COORDINATES (ANGSTROEM)
---------------------------------
  C     -0.690390   -1.186450   -0.333550
  C      0.690470   -1.186430    0.333510
  C      1.490890    0.042970   -0.118970
  C      0.668570    1.302850   -0.051510
  C     -1.490890    0.042860    0.119030
  C     -0.668680    1.302780    0.051490
  H     -1.249580   -2.119720   -0.082190
  H     -0.559340   -1.169400   -1.442210
  H      1.249740   -2.119650    0.082090
  H      0.559420   -1.169460    1.442160
  H      1.841170   -0.084590   -1.170260
  H      2.393050    0.153780    0.528240
  H      1.207970    2.264400   -0.107030
  H     -1.841050   -0.084750    1.170350
  H     -2.393120    0.153590   -0.528110
  H     -1.208150    2.264310    0.106950

 Total Charge           Charge          ....    0
 Multiplicity           Mult            ....    1
 Number of Electrons    NEL             ....   46
 Basis Dimension        Dim             ....  320

ORBITAL ENERGIES
----------------

  NO   OCC          E(Eh)            E(eV)
   0   2.0000     -11.226208      -305.4806
   1   2.0000     -11.226203      -305.4805
   2   2.0000     -11.223241      -305.3999
   3   2.0000     -11.222639      -305.3835
   4   2.0000     -11.222490      -305.3795
   5   2.0000     -11.220846      -305.3347
   6   2.0000      -1.115096       -30.3433
   7   2.0000      -0.998840       -27.1798
   8   2.0000      -0.996582       -27.1184
   9   2.0000      -0.837218       -22.7819
  10   2.0000      -0.809107       -22.0169
  11   2.0000      -0.692031       -18.8311
  12   2.0000      -0.659936       -17.9578
  13   2.0000      -0.605359       -16.4727
  14   2.0000      -0.580199       -15.7880
  15   2.0000      -0.561042       -15.2667
  16   2.0000      -0.534498       -14.5444
  17   2.0000      -0.526339       -14.3224
  18   2.0000      -0.519705       -14.1419
  19   2.0000      -0.464024       -12.6267
  20   2.0000      -0.444645       -12.0994
  21   2.0000      -0.432987       -11.7822
  22   2.0000      -0.338986        -9.2243
  23   0.0000       0.135550         3.6885
  24   0.0000       0.165339         4.4991
  25   0.0000       0.167681         4.5628
  26   0.0000       0.170622         4.6429
  27   0.0000       0.180936         4.9235

MULLIKEN ATOMIC CHARGES
-----------------------
   0 C :   -0.176090
   1 C :   -0.176092
   2 C :   -0.132622
   3 C :   -0.199541
   4 C :   -0.132618
   5 C :   -0.199528
   6 H :    0.096212
   7 H :    0.083925
   8 H :    0.096209
   9 H :    0.083929
  10 H :    0.090948
  11 H :    0.093910
  12 H :    0.143253
  13 H :    0.090953
  14 H :    0.093909
  15 H :    0.143242
Sum of atomic charges:   -0.0000000

LOEWDIN ATOMIC CHARGES
----------------------
   0 C :    0.048640
   1 C :    0.048640
   2 C :    0.035044
   3 C :    0.014484
   4 C :    0.035039
   5 C :    0.014472
   6 H :   -0.020972
   7 H :   -0.017844
   8 H :   -0.020966
   9 H :   -0.017850
  10 H :   -0.016381
  11 H :   -0.015792
  12 H :   -0.027177
  13 H :   -0.016380
  14 H :   -0.015785
  15 H :   -0.027171

  Mayer bond orders larger than 0.1
B(  0-C ,  1-C ) :   0.9431 B(  0-C ,  4-C ) :   0.9503 B(  0-C ,  6-H ) :   0.9959
B(  0-C ,  7-H ) :   0.9844 B(  1-C ,  2-C ) :   0.9503 B(  1-C ,  8-H ) :   0.9959
B(  1-C ,  9-H ) :   0.9844 B(  2-C ,  3-C ) :   0.9415 B(  2-C , 10-H ) :   0.9785
B(  2-C , 11-H ) :   0.9962 B(  3-C ,  5-C ) :   1.8803 B(  3-C , 12-H ) :   0.9752
B(  4-C ,  5-C ) :   0.9415 B(  4-C , 13-H ) :   0.9785 B(  4-C , 14-H ) :   0.9962
B(  5-C , 15-H ) :   0.9752

E(0)                                       ...   -233.091999385
E(0)                                       ...   -233.091999385
E(CORR)(strong-pairs)                      ...     -1.062932437
E(CORR)(weak-pairs)                        ...     -0.000988795
E(CORR)(corrected)                         ...     -1.063921232
E(TOT)                                     ...   -234.155920617
E(CCSD(T))                                 ...   -234.201207287
FINAL SINGLE POINT ENERGY      -234.201207286675

DIPOLE MOMENT
-------------
                                X             Y             Z
Electronic contribution:     -0.00013       1.90058       0.00002
Nuclear contribution   :      0.00013      -2.01027      -0.00001
                        -----------------------------------------
Total Dipole Moment    :      0.00001      -0.10969       0.00001
                        -----------------------------------------
Magnitude (a.u.)       :      0.10969
Magnitude (Debye)      :      0.27881

Rotational constants in cm-1:     0.156917     0.151441     0.085360
Rotational constants in MHz :  4704.246897  4540.082923  2559.042916

                             ****ORCA TERMINATED NORMALLY****
TOTAL RUN TIME: 0 days 0 hours 6 minutes 48 seconds 216 msec
