                         Program Version 4.1.x  -  STABLE  -
|  1> ! RHF DLPNO-CCSD(T) cc-pVTZ RIJK cc-pVTZ/JK cc-pVTZ/C
|  2> ! KDIIS SOSCF TightSCF TightPNO
|  3>
|  4> %pal nprocs 8 end
|  5>
|  6> %maxcore 8000
|  7>
|  8> %scf maxiter 300
|  9>      shift shift 0.2 erroff 0.1 end
| 10> end
| 11>
| 12> * xyzfile 0 1 cyclohexane_chair.xyz
| 13>
| 14>
| 15>                          ****END OF INPUT****

CARTESIAN COORDINATES (ANGSTROEM)
---------------------------------
  C      0.434800    1.394100   -0.237500
  C      1.424300    0.320200    0.237400
  C      0.990200   -1.072900   -0.237400
  C     -0.990100    1.073200    0.237200
  C     -1.424900   -0.320400   -0.237200
  C     -0.434700   -1.393900    0.237200
  H      0.747000    2.395500    0.145300
  H      0.451900    1.448300   -1.351600
  H      2.448200    0.551100   -0.144700
  H      1.480900    0.332900    1.352200
  H      1.029500   -1.115400   -1.352100
  H      1.701100   -1.845000    0.145100
  H     -1.028700    1.115000    1.352300
  H     -1.701100    1.844100   -0.144500
  H     -2.448000   -0.550800    0.144500
  H     -1.480100   -0.333300   -1.352100
  H     -0.451900   -1.449200    1.352200
  H     -0.746900   -2.395300   -0.145500

 Total Charge           Charge          ....    0
 Multiplicity           Mult            ....    1
 Number of Electrons    NEL             ....   48
 Basis Dimension        Dim             ....  348

ORBITAL ENERGIES
----------------

  NO   OCC          E(Eh)            E(eV)
   0   2.0000     -11.219638      -305.3019
   1   2.0000     -11.219364      -305.2944
   2   2.0000     -11.219340      -305.2937
   3   2.0000     -11.218766      -305.2782
   4   2.0000     -11.218738      -305.2774
   5   2.0000     -11.218437      -305.2692
   6   2.0000      -1.107505       -30.1367
   7   2.0000      -0.993830       -27.0435
   8   2.0000      -0.993598       -27.0372
   9   2.0000      -0.818430       -22.2706
  10   2.0000      -0.818260       -22.2660
  11   2.0000      -0.741927       -20.1889
  12   2.0000      -0.640353       -17.4249
  13   2.0000      -0.597308       -16.2536
  14   2.0000      -0.589869       -16.0512
  15   2.0000      -0.589826       -16.0500
  16   2.0000      -0.518809       -14.1175
  17   2.0000      -0.518585       -14.1114
  18   2.0000      -0.509243       -13.8572
  19   2.0000      -0.476511       -12.9665
  20   2.0000      -0.476380       -12.9630
  21   2.0000      -0.449062       -12.2196
  22   2.0000      -0.421401       -11.4669
  23   2.0000      -0.421106       -11.4589
  24   0.0000       0.139996         3.8095
  25   0.0000       0.154388         4.2011
  26   0.0000       0.166838         4.5399
  27   0.0000       0.166856         4.5404
  28   0.0000       0.208513         5.6739

MULLIKEN ATOMIC CHARGES
-----------------------
   0 C :   -0.179503
   1 C :   -0.178980
   2 C :   -0.179037
   3 C :   -0.179274
   4 C :   -0.179270
   5 C :   -0.179312
   6 H :    0.098271
   7 H :    0.081304
   8 H :    0.097995
   9 H :    0.080995
  10 H :    0.081049
  11 H :    0.098031
  12 H :    0.080705
  13 H :    0.098536
  14 H :    0.098596
  15 H :    0.080766
  16 H :    0.080866
  17 H :    0.098263
Sum of atomic charges:   -0.0000000

LOEWDIN ATOMIC CHARGES
----------------------
   0 C :    0.043047
   1 C :    0.042252
   2 C :    0.042350
   3 C :    0.042702
   4 C :    0.042611
   5 C :    0.042798
   6 H :   -0.021100
   7 H :   -0.021784
   8 H :   -0.020942
   9 H :   -0.021419
  10 H :   -0.021484
  11 H :   -0.020890
  12 H :   -0.021338
  13 H :   -0.021406
  14 H :   -0.021340
  15 H :   -0.021415
  16 H :   -0.021440
  17 H :   -0.021202

  Mayer bond orders larger than 0.1
B(  0-C ,  1-C ) :   0.9472 B(  0-C ,  3-C ) :   0.9472 B(  0-C ,  6-H ) :   0.9959
B(  0-C ,  7-H ) :   0.9843 B(  1-C ,  2-C ) :   0.9472 B(  1-C ,  8-H ) :   0.9959
B(  1-C ,  9-H ) :   0.9842 B(  2-C ,  5-C ) :   0.9472 B(  2-C , 10-H ) :   0.9842
B(  2-C , 11-H ) :   0.9959 B(  3-C ,  4-C ) :   0.9472 B(  3-C , 12-H ) :   0.9843
B(  3-C , 13-H ) :   0.9958 B(  4-C ,  5-C ) :   0.9472 B(  4-C , 14-H ) :   0.9958
B(  4-C , 15-H ) :   0.9843 B(  5-C , 16-H ) :   0.9843 B(  5-C , 17-H ) :   0.9959

E(0)                                       ...   -234.279381905
E(0)                                       ...   -234.279381905
E(CORR)(strong-pairs)                      ...     -1.105628584
E(CORR)(weak-pairs)                        ...     -0.001069155
E(CORR)(corrected)                         ...     -1.106697739
E(TOT)                                     ...   -235.386079644
E(CCSD(T))                                 ...   -235.430217610
FINAL SINGLE POINT ENERGY      -235.430217609794

DIPOLE MOMENT
-------------
                                X             Y             Z
Electronic contribution:     -0.00275       0.00241      -0.00186
Nuclear contribution   :      0.00217      -0.00217       0.00137
                        -----------------------------------------
Total Dipole Moment    :     -0.00058       0.00024      -0.00050
                        -----------------------------------------
Magnitude (a.u.)       :      0.00080
Magnitude (Debye)      :      0.00203

Rotational constants in cm-1:     0.142803     0.142749     0.081970
Rotational constants in MHz :  4281.139400  4279.520215  2457.403178

                             ****ORCA TERMINATED NORMALLY****
TOTAL RUN TIME: 0 days 0 hours 7 minutes 10 seconds 566 msec
