                         Program Version 4.1.x  -  STABLE  -
|  1> ! RHF DLPNO-CCSD(T) cc-pVTZ RIJK cc-pVTZ/JK cc-pVTZ/C
|  2> ! KDIIS SOSCF TightSCF TightPNO
|  3>
|  4> %pal nprocs 8 end
|  5>
|  6> %maxcore 8000
|  7>
|  8> %scf maxiter 300
|  9>      shift shift 0.2 erroff 0.1 end
| 10> end
| 11>
| 12> * xyzfile 0 1 dimethilsulfide_g.xyz
| 13>
| 14>
| 15>                          ****END OF INPUT****

CARTESIAN COORDINATES (ANGSTROEM)
---------------------------------
  C     -1.501890   -0.423640    0.000000
  S     -0.000000    0.553540    0.000000
  C      1.501890   -0.423630    0.000000
  H     -2.388280    0.249270    0.000040
  H     -1.531640   -1.067810   -0.907090
  H     -1.531610   -1.067930    0.907020
  H      1.531430   -1.068160   -0.906860
  H      2.388280    0.249280   -0.000420
  H      1.531820   -1.067580    0.907260

 Total Charge           Charge          ....    0
 Multiplicity           Mult            ....    1
 Number of Electrons    NEL             ....   34
 Basis Dimension        Dim             ....  178

ORBITAL ENERGIES
----------------

  NO   OCC          E(Eh)            E(eV)
   0   2.0000     -91.934292     -2501.6593
   1   2.0000     -11.260450      -306.4124
   2   2.0000     -11.260441      -306.4122
   3   2.0000      -8.936682      -243.1795
   4   2.0000      -6.618154      -180.0891
   5   2.0000      -6.617273      -180.0652
   6   2.0000      -6.616230      -180.0368
   7   2.0000      -1.055993       -28.7350
   8   2.0000      -0.953227       -25.9386
   9   2.0000      -0.795926       -21.6582
  10   2.0000      -0.594834       -16.1862
  11   2.0000      -0.594774       -16.1846
  12   2.0000      -0.574592       -15.6354
  13   2.0000      -0.562526       -15.3071
  14   2.0000      -0.517702       -14.0874
  15   2.0000      -0.407282       -11.0827
  16   2.0000      -0.327846        -8.9212
  17   0.0000       0.131794         3.5863
  18   0.0000       0.155422         4.2292
  19   0.0000       0.193818         5.2741
  20   0.0000       0.193837         5.2746
  21   0.0000       0.207099         5.6354

MULLIKEN ATOMIC CHARGES
-----------------------
   0 C :   -0.236772
   1 S :   -0.135023
   2 C :   -0.236769
   3 H :    0.115047
   4 H :    0.094623
   5 H :    0.094615
   6 H :    0.094609
   7 H :    0.115049
   8 H :    0.094622
Sum of atomic charges:    0.0000000

LOEWDIN ATOMIC CHARGES
----------------------
   0 C :   -0.080003
   1 S :    0.371799
   2 C :   -0.080012
   3 H :   -0.021694
   4 H :   -0.042103
   5 H :   -0.042097
   6 H :   -0.042096
   7 H :   -0.021695
   8 H :   -0.042098

  Mayer bond orders larger than 0.1
B(  0-C ,  1-S ) :   0.9887 B(  0-C ,  3-H ) :   0.9720 B(  0-C ,  4-H ) :   0.9707
B(  0-C ,  5-H ) :   0.9707 B(  1-S ,  2-C ) :   0.9887 B(  2-C ,  6-H ) :   0.9707
B(  2-C ,  7-H ) :   0.9720 B(  2-C ,  8-H ) :   0.9707

E(0)                                       ...   -476.789691557
E(0)                                       ...   -476.789691557
E(CORR)(strong-pairs)                      ...     -0.581518418
E(CORR)(weak-pairs)                        ...     -0.000259019
E(CORR)(corrected)                         ...     -0.581777437
E(TOT)                                     ...   -477.371468994
E(CCSD(T))                                 ...   -477.394310802
FINAL SINGLE POINT ENERGY      -477.394310802026

DIPOLE MOMENT
-------------
                                X             Y             Z
Electronic contribution:     -0.00000       3.21649       0.00002
Nuclear contribution   :     -0.00000      -3.89522      -0.00004
                        -----------------------------------------
Total Dipole Moment    :     -0.00000      -0.67873      -0.00002
                        -----------------------------------------
Magnitude (a.u.)       :      0.67873
Magnitude (Debye)      :      1.72519

Rotational constants in cm-1:     0.768119     0.214855     0.179771
Rotational constants in MHz : 23027.632279  6441.177745  5389.409697

                             ****ORCA TERMINATED NORMALLY****
TOTAL RUN TIME: 0 days 0 hours 1 minutes 10 seconds 603 msec
