                         Program Version 4.1.x  -  STABLE  -
|  1> ! RHF DLPNO-CCSD(T) cc-pVTZ RIJK cc-pVTZ/JK cc-pVTZ/C
|  2> ! KDIIS SOSCF TightSCF TightPNO
|  3>
|  4> %pal nprocs 8 end
|  5>
|  6> %maxcore 8000
|  7>
|  8> %scf maxiter 300
|  9>      shift shift 0.2 erroff 0.1 end
| 10> end
| 11>
| 12> * xyzfile 0 1 dimethylphosphine_ecl.xyz
| 13>
| 14>
| 15>                          ****END OF INPUT****

CARTESIAN COORDINATES (ANGSTROEM)
---------------------------------
  P     -0.000560   -0.563880   -0.094200
  C      1.559570    0.496620    0.033630
  C     -1.556740    0.499370    0.030000
  H     -0.013810   -1.797080    0.643110
  H      2.460350   -0.115620   -0.195010
  H      1.510180    1.342380   -0.688100
  H      1.659380    0.909530    1.062280
  H     -2.197990    0.367650   -0.869970
  H     -2.141250    0.203320    0.929590
  H     -1.285470    1.572120    0.149280

 Total Charge           Charge          ....    0
 Multiplicity           Mult            ....    1
 Number of Electrons    NEL             ....   34
 Basis Dimension        Dim             ....  192

ORBITAL ENERGIES
----------------

  NO   OCC          E(Eh)            E(eV)
   0   2.0000     -79.926006     -2174.8972
   1   2.0000     -11.246058      -306.0208
   2   2.0000     -11.244558      -305.9800
   3   2.0000      -7.467331      -203.1964
   4   2.0000      -5.362150      -145.9115
   5   2.0000      -5.361882      -145.9042
   6   2.0000      -5.361689      -145.8990
   7   2.0000      -0.982066       -26.7234
   8   2.0000      -0.933444       -25.4003
   9   2.0000      -0.744596       -20.2615
  10   2.0000      -0.582044       -15.8382
  11   2.0000      -0.572069       -15.5668
  12   2.0000      -0.555220       -15.1083
  13   2.0000      -0.553842       -15.0708
  14   2.0000      -0.497255       -13.5310
  15   2.0000      -0.467208       -12.7134
  16   2.0000      -0.280385        -7.6297
  17   0.0000       0.130720         3.5571
  18   0.0000       0.149466         4.0672
  19   0.0000       0.157078         4.2743
  20   0.0000       0.194583         5.2949
  21   0.0000       0.206072         5.6075

MULLIKEN ATOMIC CHARGES
-----------------------
   0 P :   -0.049662
   1 C :   -0.306232
   2 C :   -0.310724
   3 H :    0.032815
   4 H :    0.110338
   5 H :    0.107469
   6 H :    0.096336
   7 H :    0.118640
   8 H :    0.101561
   9 H :    0.099458
Sum of atomic charges:   -0.0000000

LOEWDIN ATOMIC CHARGES
----------------------
   0 P :    0.402334
   1 C :   -0.036328
   2 C :   -0.036382
   3 H :   -0.126215
   4 H :   -0.027444
   5 H :   -0.027042
   6 H :   -0.047670
   7 H :   -0.030075
   8 H :   -0.038054
   9 H :   -0.033124

  Mayer bond orders larger than 0.1
B(  0-P ,  1-C ) :   0.9705 B(  0-P ,  2-C ) :   0.9427 B(  0-P ,  3-H ) :   0.9687
B(  1-C ,  4-H ) :   0.9727 B(  1-C ,  5-H ) :   0.9669 B(  1-C ,  6-H ) :   0.9674
B(  2-C ,  7-H ) :   0.9721 B(  2-C ,  8-H ) :   0.9719 B(  2-C ,  9-H ) :   0.9695

E(0)                                       ...   -420.548068152
E(0)                                       ...   -420.548068152
E(CORR)(strong-pairs)                      ...     -0.568091603
E(CORR)(weak-pairs)                        ...     -0.000263753
E(CORR)(corrected)                         ...     -0.568355357
E(TOT)                                     ...   -421.116423509
E(CCSD(T))                                 ...   -421.138593765
FINAL SINGLE POINT ENERGY      -421.138593764635

DIPOLE MOMENT
-------------
                                X             Y             Z
Electronic contribution:      0.00508      -2.68727      -0.71457
Nuclear contribution   :     -0.00831       3.10702       1.15346
                        -----------------------------------------
Total Dipole Moment    :     -0.00323       0.41975       0.43890
                        -----------------------------------------
Magnitude (a.u.)       :      0.60731
Magnitude (Debye)      :      1.54367

Rotational constants in cm-1:     0.596629     0.199230     0.160623
Rotational constants in MHz : 17886.485414  5972.774175  4815.358428

                             ****ORCA TERMINATED NORMALLY****
TOTAL RUN TIME: 0 days 0 hours 1 minutes 17 seconds 908 msec
