                         Program Version 4.1.x  -  STABLE  -
|  1> ! RHF DLPNO-CCSD(T) cc-pVTZ RIJK cc-pVTZ/JK cc-pVTZ/C
|  2> ! KDIIS SOSCF TightSCF TightPNO
|  3>
|  4> %pal nprocs 8 end
|  5>
|  6> %maxcore 8000
|  7>
|  8> %scf maxiter 300
|  9>      shift shift 0.2 erroff 0.1 end
| 10> end
| 11>
| 12> * xyzfile 0 1 Dimethylether_ecl.xyz
| 13>
| 14>
| 15>                          ****END OF INPUT****

CARTESIAN COORDINATES (ANGSTROEM)
---------------------------------
  C      1.194090    0.191540    0.000000
  O      0.003480   -0.559000   -0.000000
  C     -1.194130    0.186800   -0.000000
  H      2.042410   -0.529730    0.000000
  H      1.236160    0.815990   -0.922070
  H      1.236160    0.815980    0.922070
  H     -1.772780   -0.091800   -0.909950
  H     -1.772790   -0.091810    0.909950
  H     -0.996820    1.283370    0.000010

 Total Charge           Charge          ....    0
 Multiplicity           Mult            ....    1
 Number of Electrons    NEL             ....   26
 Basis Dimension        Dim             ....  174

ORBITAL ENERGIES
----------------

  NO   OCC          E(Eh)            E(eV)
   0   2.0000     -20.545803      -559.0797
   1   2.0000     -11.275866      -306.8319
   2   2.0000     -11.274604      -306.7976
   3   2.0000      -1.367004       -37.1981
   4   2.0000      -0.964055       -26.2333
   5   2.0000      -0.860673       -23.4201
   6   2.0000      -0.652364       -17.7517
   7   2.0000      -0.645185       -17.5564
   8   2.0000      -0.630126       -17.1466
   9   2.0000      -0.554689       -15.0939
  10   2.0000      -0.521803       -14.1990
  11   2.0000      -0.471021       -12.8171
  12   2.0000      -0.412926       -11.2363
  13   0.0000       0.139847         3.8054
  14   0.0000       0.177412         4.8276
  15   0.0000       0.213011         5.7963
  16   0.0000       0.218677         5.9505
  17   0.0000       0.221164         6.0182

MULLIKEN ATOMIC CHARGES
-----------------------
   0 C :   -0.030736
   1 O :   -0.356550
   2 C :   -0.023696
   3 H :    0.095012
   4 H :    0.054229
   5 H :    0.054231
   6 H :    0.078975
   7 H :    0.078972
   8 H :    0.049563
Sum of atomic charges:   -0.0000000

LOEWDIN ATOMIC CHARGES
----------------------
   0 C :   -0.018422
   1 O :    0.235941
   2 C :   -0.006602
   3 H :   -0.024602
   4 H :   -0.041097
   5 H :   -0.041099
   6 H :   -0.033170
   7 H :   -0.033166
   8 H :   -0.037782

  Mayer bond orders larger than 0.1
B(  0-C ,  1-O ) :   0.9879 B(  0-C ,  3-H ) :   0.9822 B(  0-C ,  4-H ) :   0.9707
B(  0-C ,  5-H ) :   0.9707 B(  1-O ,  2-C ) :   0.9653 B(  2-C ,  6-H ) :   0.9782
B(  2-C ,  7-H ) :   0.9782 B(  2-C ,  8-H ) :   0.9725

E(0)                                       ...   -154.118818328
E(0)                                       ...   -154.118818328
E(CORR)(strong-pairs)                      ...     -0.628518141
E(CORR)(weak-pairs)                        ...     -0.000340868
E(CORR)(corrected)                         ...     -0.628859008
E(TOT)                                     ...   -154.747677336
E(CCSD(T))                                 ...   -154.769329120
FINAL SINGLE POINT ENERGY      -154.769329119951

DIPOLE MOMENT
-------------
                                X             Y             Z
Electronic contribution:      0.03716      -1.77474      -0.00001
Nuclear contribution   :     -0.02924       2.32461       0.00001
                        -----------------------------------------
Total Dipole Moment    :      0.00792       0.54988       0.00000
                        -----------------------------------------
Magnitude (a.u.)       :      0.54994
Magnitude (Debye)      :      1.39782

Rotational constants in cm-1:     1.354931     0.322577     0.290978
Rotational constants in MHz : 40619.805729  9670.616803  8723.307100

                             ****ORCA TERMINATED NORMALLY****
TOTAL RUN TIME: 0 days 0 hours 1 minutes 7 seconds 680 msec
