                         Program Version 4.1.x  -  STABLE  -
|  1> ! RHF DLPNO-CCSD(T) cc-pVTZ RIJK cc-pVTZ/JK cc-pVTZ/C
|  2> ! KDIIS SOSCF TightSCF TightPNO
|  3>
|  4> %pal nprocs 8 end
|  5>
|  6> %maxcore 8000
|  7>
|  8> %scf maxiter 300
|  9>      shift shift 0.2 erroff 0.1 end
| 10> end
| 11>
| 12> * xyzfile 0 1 diMe_sulfone_ts.xyz
| 13>
| 14>
| 15>                          ****END OF INPUT****

CARTESIAN COORDINATES (ANGSTROEM)
---------------------------------
  C     -1.352900    0.974500   -0.004700
  S     -0.008900   -0.190700   -0.000200
  C      1.453400    0.850200    0.008900
  O     -0.058200   -0.912000    1.260200
  O     -0.041200   -0.908300   -1.263200
  H     -1.305500    1.574100   -0.908900
  H     -1.299500    1.586100    0.891200
  H      2.063000    0.549000   -0.836900
  H      1.164900    1.892300   -0.097300
  H      1.968200    0.692000    0.950400
  H     -2.256900    0.371200    0.003000

 Total Charge           Charge          ....    0
 Multiplicity           Mult            ....    1
 Number of Electrons    NEL             ....   50
 Basis Dimension        Dim             ....  238

ORBITAL ENERGIES
----------------

  NO   OCC          E(Eh)            E(eV)
   0   2.0000     -92.176914     -2508.2614
   1   2.0000     -20.537184      -558.8452
   2   2.0000     -20.536869      -558.8366
   3   2.0000     -11.275737      -306.8284
   4   2.0000     -11.274415      -306.7924
   5   2.0000      -9.148005      -248.9299
   6   2.0000      -6.832627      -185.9252
   7   2.0000      -6.832155      -185.9124
   8   2.0000      -6.832099      -185.9109
   9   2.0000      -1.444020       -39.2938
  10   2.0000      -1.331283       -36.2261
  11   2.0000      -1.071138       -29.1472
  12   2.0000      -1.008174       -27.4338
  13   2.0000      -0.814933       -22.1755
  14   2.0000      -0.683775       -18.6065
  15   2.0000      -0.670763       -18.2524
  16   2.0000      -0.661588       -18.0027
  17   2.0000      -0.619605       -16.8603
  18   2.0000      -0.618948       -16.8424
  19   2.0000      -0.593347       -16.1458
  20   2.0000      -0.577509       -15.7148
  21   2.0000      -0.491662       -13.3788
  22   2.0000      -0.489220       -13.3124
  23   2.0000      -0.464297       -12.6342
  24   2.0000      -0.439659       -11.9637
  25   0.0000       0.118180         3.2158
  26   0.0000       0.167321         4.5530
  27   0.0000       0.174333         4.7438
  28   0.0000       0.187177         5.0933
  29   0.0000       0.194048         5.2803

MULLIKEN ATOMIC CHARGES
-----------------------
   0 C :   -0.294253
   1 S :    0.990658
   2 C :   -0.310377
   3 O :   -0.569280
   4 O :   -0.569368
   5 H :    0.116775
   6 H :    0.117549
   7 H :    0.138908
   8 H :    0.105886
   9 H :    0.138725
  10 H :    0.134778
Sum of atomic charges:   -0.0000000

LOEWDIN ATOMIC CHARGES
----------------------
   0 C :    0.040209
   1 S :    0.628047
   2 C :    0.049804
   3 O :   -0.275019
   4 O :   -0.274650
   5 H :   -0.030751
   6 H :   -0.030380
   7 H :   -0.025474
   8 H :   -0.033336
   9 H :   -0.026704
  10 H :   -0.021747

  Mayer bond orders larger than 0.1
B(  0-C ,  1-S ) :   0.9139 B(  0-C ,  5-H ) :   0.9604 B(  0-C ,  6-H ) :   0.9604
B(  0-C , 10-H ) :   0.9636 B(  1-S ,  2-C ) :   0.8963 B(  1-S ,  3-O ) :   1.8551
B(  1-S ,  4-O ) :   1.8544 B(  2-C ,  7-H ) :   0.9592 B(  2-C ,  8-H ) :   0.9654
B(  2-C ,  9-H ) :   0.9588

E(0)                                       ...   -626.539683325
E(0)                                       ...   -626.539683325
E(CORR)(strong-pairs)                      ...     -1.044889652
E(CORR)(weak-pairs)                        ...     -0.000794046
E(CORR)(corrected)                         ...     -1.045683698
E(TOT)                                     ...   -627.585367023
E(CCSD(T))                                 ...   -627.627952293
FINAL SINGLE POINT ENERGY      -627.627952293039

DIPOLE MOMENT
-------------
                                X             Y             Z
Electronic contribution:     -0.22295      -4.60100      -0.00018
Nuclear contribution   :      0.33216       6.62614       0.00152
                        -----------------------------------------
Total Dipole Moment    :      0.10921       2.02514       0.00134
                        -----------------------------------------
Magnitude (a.u.)       :      2.02809
Magnitude (Debye)      :      5.15499

Rotational constants in cm-1:     0.151792     0.140762     0.137701
Rotational constants in MHz :  4550.618218  4219.948913  4128.180025

                             ****ORCA TERMINATED NORMALLY****
TOTAL RUN TIME: 0 days 0 hours 3 minutes 8 seconds 968 msec
