                         Program Version 4.1.x  -  STABLE  -
|  1> ! RHF DLPNO-CCSD(T) cc-pVTZ RIJK cc-pVTZ/JK cc-pVTZ/C
|  2> ! KDIIS SOSCF TightSCF TightPNO
|  3>
|  4> %pal nprocs 8 end
|  5>
|  6> %maxcore 8000
|  7>
|  8> %scf maxiter 300
|  9>      shift shift 0.2 erroff 0.1 end
| 10> end
| 11>
| 12> * xyzfile 0 1 dimethylphosphine_a.xyz
| 13>
| 14>
| 15>                          ****END OF INPUT****

CARTESIAN COORDINATES (ANGSTROEM)
---------------------------------
  P     -0.000000    0.569470   -0.102470
  C     -1.548450   -0.499510    0.036740
  C      1.548450   -0.499510    0.036740
  H      0.000010    1.758070    0.704860
  H     -2.457170    0.110590   -0.164560
  H     -1.508040   -1.333060   -0.699580
  H     -1.626850   -0.930590    1.059790
  H      2.457180    0.110600   -0.164570
  H      1.626850   -0.930590    1.059790
  H      1.508040   -1.333070   -0.699580

 Total Charge           Charge          ....    0
 Multiplicity           Mult            ....    1
 Number of Electrons    NEL             ....   34
 Basis Dimension        Dim             ....  192

ORBITAL ENERGIES
----------------

  NO   OCC          E(Eh)            E(eV)
   0   2.0000     -79.927679     -2174.9427
   1   2.0000     -11.244477      -305.9778
   2   2.0000     -11.244468      -305.9775
   3   2.0000      -7.468826      -203.2371
   4   2.0000      -5.363463      -145.9472
   5   2.0000      -5.363185      -145.9397
   6   2.0000      -5.362924      -145.9326
   7   2.0000      -0.983469       -26.7616
   8   2.0000      -0.933790       -25.4097
   9   2.0000      -0.745200       -20.2779
  10   2.0000      -0.582446       -15.8492
  11   2.0000      -0.572816       -15.5871
  12   2.0000      -0.556438       -15.1415
  13   2.0000      -0.552733       -15.0406
  14   2.0000      -0.497272       -13.5315
  15   2.0000      -0.468313       -12.7434
  16   2.0000      -0.285677        -7.7737
  17   0.0000       0.131219         3.5707
  18   0.0000       0.148799         4.0490
  19   0.0000       0.162412         4.4194
  20   0.0000       0.193654         5.2696
  21   0.0000       0.200171         5.4469

MULLIKEN ATOMIC CHARGES
-----------------------
   0 P :   -0.024846
   1 C :   -0.308966
   2 C :   -0.308963
   3 H :    0.024417
   4 H :    0.109558
   5 H :    0.105958
   6 H :    0.093664
   7 H :    0.109554
   8 H :    0.093666
   9 H :    0.105957
Sum of atomic charges:    0.0000000

LOEWDIN ATOMIC CHARGES
----------------------
   0 P :    0.406715
   1 C :   -0.036863
   2 C :   -0.036869
   3 H :   -0.127482
   4 H :   -0.027436
   5 H :   -0.027310
   6 H :   -0.048008
   7 H :   -0.027429
   8 H :   -0.048009
   9 H :   -0.027308

  Mayer bond orders larger than 0.1
B(  0-P ,  1-C ) :   0.9726 B(  0-P ,  2-C ) :   0.9726 B(  0-P ,  3-H ) :   0.9686
B(  1-C ,  4-H ) :   0.9721 B(  1-C ,  5-H ) :   0.9671 B(  1-C ,  6-H ) :   0.9675
B(  2-C ,  7-H ) :   0.9721 B(  2-C ,  8-H ) :   0.9675 B(  2-C ,  9-H ) :   0.9671

E(0)                                       ...   -420.555808418
E(0)                                       ...   -420.555808418
E(CORR)(strong-pairs)                      ...     -0.567315717
E(CORR)(weak-pairs)                        ...     -0.000258311
E(CORR)(corrected)                         ...     -0.567574028
E(TOT)                                     ...   -421.123382446
E(CCSD(T))                                 ...   -421.145413107
FINAL SINGLE POINT ENERGY      -421.145413106688

DIPOLE MOMENT
-------------
                                X             Y             Z
Electronic contribution:     -0.00002       2.75242      -0.79610
Nuclear contribution   :      0.00002      -3.18015       1.22842
                        -----------------------------------------
Total Dipole Moment    :     -0.00001      -0.42772       0.43232
                        -----------------------------------------
Magnitude (a.u.)       :      0.60815
Magnitude (Debye)      :      1.54579

Rotational constants in cm-1:     0.591571     0.201230     0.161932
Rotational constants in MHz : 17734.856465  6032.718373  4854.606079

                             ****ORCA TERMINATED NORMALLY****
TOTAL RUN TIME: 0 days 0 hours 1 minutes 15 seconds 962 msec
