                         Program Version 4.1.x  -  STABLE  -
|  1> ! RHF DLPNO-CCSD(T) cc-pVTZ RIJK cc-pVTZ/JK cc-pVTZ/C
|  2> ! KDIIS SOSCF TightSCF TightPNO
|  3>
|  4> %pal nprocs 8 end
|  5>
|  6> %maxcore 8000
|  7>
|  8> %scf maxiter 300
|  9>      shift shift 0.2 erroff 0.1 end
| 10> end
| 11>
| 12> * xyzfile 0 1 Dimethylether_g.xyz
| 13>
| 14>
| 15>                          ****END OF INPUT****

CARTESIAN COORDINATES (ANGSTROEM)
---------------------------------
  C      1.173270   -0.198530    0.000000
  O      0.000000    0.581830   -0.000000
  C     -1.173270   -0.198530    0.000000
  H      2.031610    0.509900    0.000060
  H      1.209230   -0.823060    0.922050
  H      1.209290   -0.823000   -0.922090
  H     -1.209280   -0.822990    0.922090
  H     -2.031620    0.509900   -0.000050
  H     -1.209230   -0.823070   -0.922030

 Total Charge           Charge          ....    0
 Multiplicity           Mult            ....    1
 Number of Electrons    NEL             ....   26
 Basis Dimension        Dim             ....  174

ORBITAL ENERGIES
----------------

  NO   OCC          E(Eh)            E(eV)
   0   2.0000     -20.550611      -559.2105
   1   2.0000     -11.275085      -306.8107
   2   2.0000     -11.275063      -306.8101
   3   2.0000      -1.370941       -37.3052
   4   2.0000      -0.962385       -26.1878
   5   2.0000      -0.862713       -23.4756
   6   2.0000      -0.659419       -17.9437
   7   2.0000      -0.644803       -17.5460
   8   2.0000      -0.630211       -17.1489
   9   2.0000      -0.549606       -14.9555
  10   2.0000      -0.520413       -14.1611
  11   2.0000      -0.473190       -12.8761
  12   2.0000      -0.421436       -11.4679
  13   0.0000       0.140386         3.8201
  14   0.0000       0.176590         4.8053
  15   0.0000       0.206222         5.6116
  16   0.0000       0.206802         5.6274
  17   0.0000       0.235586         6.4106

MULLIKEN ATOMIC CHARGES
-----------------------
   0 C :   -0.032196
   1 O :   -0.346318
   2 C :   -0.032196
   3 H :    0.097487
   4 H :    0.053932
   5 H :    0.053936
   6 H :    0.053936
   7 H :    0.097483
   8 H :    0.053937
Sum of atomic charges:   -0.0000000

LOEWDIN ATOMIC CHARGES
----------------------
   0 C :   -0.012930
   1 O :    0.239611
   2 C :   -0.012928
   3 H :   -0.025041
   4 H :   -0.040918
   5 H :   -0.040917
   6 H :   -0.040919
   7 H :   -0.025037
   8 H :   -0.040922

  Mayer bond orders larger than 0.1
B(  0-C ,  1-O ) :   0.9885 B(  0-C ,  3-H ) :   0.9831 B(  0-C ,  4-H ) :   0.9696
B(  0-C ,  5-H ) :   0.9696 B(  1-O ,  2-C ) :   0.9885 B(  2-C ,  6-H ) :   0.9696
B(  2-C ,  7-H ) :   0.9831 B(  2-C ,  8-H ) :   0.9696

E(0)                                       ...   -154.122554989
E(0)                                       ...   -154.122554989
E(CORR)(strong-pairs)                      ...     -0.629173808
E(CORR)(weak-pairs)                        ...     -0.000341756
E(CORR)(corrected)                         ...     -0.629515564
E(TOT)                                     ...   -154.752070553
E(CCSD(T))                                 ...   -154.773841689
FINAL SINGLE POINT ENERGY      -154.773841689110

DIPOLE MOMENT
-------------
                                X             Y             Z
Electronic contribution:      0.00000       1.86504      -0.00003
Nuclear contribution   :      0.00000      -2.39877       0.00002
                        -----------------------------------------
Total Dipole Moment    :      0.00000      -0.53373      -0.00000
                        -----------------------------------------
Magnitude (a.u.)       :      0.53373
Magnitude (Debye)      :      1.35664

Rotational constants in cm-1:     1.303112     0.332414     0.296825
Rotational constants in MHz : 39066.313783  9965.526413  8898.594389

                             ****ORCA TERMINATED NORMALLY****
TOTAL RUN TIME: 0 days 0 hours 1 minutes 10 seconds 525 msec
