                         Program Version 4.1.x  -  STABLE  -
|  1> ! RHF DLPNO-CCSD(T) cc-pVTZ RIJK cc-pVTZ/JK cc-pVTZ/C
|  2> ! KDIIS SOSCF TightSCF TightPNO
|  3>
|  4> %pal nprocs 8 end
|  5>
|  6> %maxcore 8000
|  7>
|  8> %scf maxiter 300
|  9>      shift shift 0.2 erroff 0.1 end
| 10> end
| 11>
| 12> * xyzfile 0 1 dimethilsulfide_ecl.xyz
| 13>
| 14>
| 15>                          ****END OF INPUT****

CARTESIAN COORDINATES (ANGSTROEM)
---------------------------------
  C     -1.504200    0.421970    0.000000
  S      0.000400   -0.551710    0.000000
  C      1.504070    0.422650    0.000000
  H     -2.104540    0.185700    0.906800
  H     -1.256760    1.507100    0.000000
  H     -2.104540    0.185700   -0.906800
  H      1.535640    1.066620    0.907200
  H      2.388960   -0.252220   -0.000000
  H      1.535650    1.066640   -0.907190

 Total Charge           Charge          ....    0
 Multiplicity           Mult            ....    1
 Number of Electrons    NEL             ....   34
 Basis Dimension        Dim             ....  178

ORBITAL ENERGIES
----------------

  NO   OCC          E(Eh)            E(eV)
   0   2.0000     -91.933405     -2501.6351
   1   2.0000     -11.260072      -306.4021
   2   2.0000     -11.259538      -306.3876
   3   2.0000      -8.935910      -243.1585
   4   2.0000      -6.617427      -180.0693
   5   2.0000      -6.616465      -180.0432
   6   2.0000      -6.615499      -180.0169
   7   2.0000      -1.055381       -28.7184
   8   2.0000      -0.952664       -25.9233
   9   2.0000      -0.795852       -21.6562
  10   2.0000      -0.595768       -16.2117
  11   2.0000      -0.592276       -16.1166
  12   2.0000      -0.572507       -15.5787
  13   2.0000      -0.564822       -15.3696
  14   2.0000      -0.516346       -14.0505
  15   2.0000      -0.406894       -11.0722
  16   2.0000      -0.326963        -8.8971
  17   0.0000       0.131815         3.5869
  18   0.0000       0.156222         4.2510
  19   0.0000       0.190098         5.1728
  20   0.0000       0.206636         5.6229
  21   0.0000       0.206992         5.6325

MULLIKEN ATOMIC CHARGES
-----------------------
   0 C :   -0.239282
   1 S :   -0.140952
   2 C :   -0.239690
   3 H :    0.109220
   4 H :    0.094049
   5 H :    0.109220
   6 H :    0.096078
   7 H :    0.115279
   8 H :    0.096077
Sum of atomic charges:   -0.0000000

LOEWDIN ATOMIC CHARGES
----------------------
   0 C :   -0.079706
   1 S :    0.372319
   2 C :   -0.081681
   3 H :   -0.033748
   4 H :   -0.036874
   5 H :   -0.033748
   6 H :   -0.042221
   7 H :   -0.022122
   8 H :   -0.042219

  Mayer bond orders larger than 0.1
B(  0-C ,  1-S ) :   0.9631 B(  0-C ,  3-H ) :   0.9723 B(  0-C ,  4-H ) :   0.9764
B(  0-C ,  5-H ) :   0.9723 B(  1-S ,  2-C ) :   0.9882 B(  2-C ,  6-H ) :   0.9706
B(  2-C ,  7-H ) :   0.9725 B(  2-C ,  8-H ) :   0.9706

E(0)                                       ...   -476.787707513
E(0)                                       ...   -476.787707513
E(CORR)(strong-pairs)                      ...     -0.581778123
E(CORR)(weak-pairs)                        ...     -0.000264563
E(CORR)(corrected)                         ...     -0.582042686
E(TOT)                                     ...   -477.369750199
E(CCSD(T))                                 ...   -477.392616800
FINAL SINGLE POINT ENERGY      -477.392616800110

DIPOLE MOMENT
-------------
                                X             Y             Z
Electronic contribution:      0.01018      -3.18039      -0.00001
Nuclear contribution   :     -0.00576       3.88140       0.00001
                        -----------------------------------------
Total Dipole Moment    :      0.00441       0.70101       0.00000
                        -----------------------------------------
Magnitude (a.u.)       :      0.70103
Magnitude (Debye)      :      1.78187

Rotational constants in cm-1:     0.771528     0.214221     0.179511
Rotational constants in MHz : 23129.830555  6422.176696  5381.602023

                             ****ORCA TERMINATED NORMALLY****
TOTAL RUN TIME: 0 days 0 hours 1 minutes 13 seconds 589 msec
