                         Program Version 4.1.x  -  STABLE  -
|  1> ! RHF DLPNO-CCSD(T) cc-pVTZ RIJK cc-pVTZ/JK cc-pVTZ/C
|  2> ! KDIIS SOSCF TightSCF TightPNO
|  3>
|  4> %pal nprocs 8 end
|  5>
|  6> %maxcore 8000
|  7>
|  8> %scf maxiter 300
|  9>      shift shift 0.2 erroff 0.1 end
| 10> end
| 11>
| 12> * xyzfile 0 1 diMe_sulfone.xyz
| 13>
| 14>
| 15>                          ****END OF INPUT****

CARTESIAN COORDINATES (ANGSTROEM)
---------------------------------
  C      1.402650   -0.901650    0.000000
  S     -0.000010    0.183070    0.000000
  C     -1.402610   -0.901720    0.000000
  O     -0.000010    0.903990    1.244820
  O     -0.000010    0.903990   -1.244820
  H      1.389250   -1.510390   -0.893760
  H      1.389250   -1.510390    0.893760
  H     -2.278050   -0.265590    0.000000
  H     -1.389200   -1.510460   -0.893770
  H     -1.389200   -1.510460    0.893770
  H      2.278060   -0.265480    0.000000

 Total Charge           Charge          ....    0
 Multiplicity           Mult            ....    1
 Number of Electrons    NEL             ....   50
 Basis Dimension        Dim             ....  238

ORBITAL ENERGIES
----------------

  NO   OCC          E(Eh)            E(eV)
   0   2.0000     -92.173707     -2508.1741
   1   2.0000     -20.534859      -558.7819
   2   2.0000     -20.534837      -558.7813
   3   2.0000     -11.272608      -306.7433
   4   2.0000     -11.272592      -306.7428
   5   2.0000      -9.145476      -248.8611
   6   2.0000      -6.830063      -185.8555
   7   2.0000      -6.829776      -185.8476
   8   2.0000      -6.829673      -185.8449
   9   2.0000      -1.453376       -39.5484
  10   2.0000      -1.337103       -36.3844
  11   2.0000      -1.073338       -29.2070
  12   2.0000      -1.012187       -27.5430
  13   2.0000      -0.813533       -22.1374
  14   2.0000      -0.688986       -18.7483
  15   2.0000      -0.675373       -18.3778
  16   2.0000      -0.665847       -18.1186
  17   2.0000      -0.616864       -16.7857
  18   2.0000      -0.614302       -16.7160
  19   2.0000      -0.597115       -16.2483
  20   2.0000      -0.582041       -15.8381
  21   2.0000      -0.495810       -13.4917
  22   2.0000      -0.492951       -13.4139
  23   2.0000      -0.465583       -12.6692
  24   2.0000      -0.441258       -12.0073
  25   0.0000       0.119380         3.2485
  26   0.0000       0.166147         4.5211
  27   0.0000       0.167081         4.5465
  28   0.0000       0.177487         4.8297
  29   0.0000       0.211749         5.7620

MULLIKEN ATOMIC CHARGES
-----------------------
   0 C :   -0.292032
   1 S :    0.983425
   2 C :   -0.292031
   3 O :   -0.567847
   4 O :   -0.567847
   5 H :    0.116181
   6 H :    0.116181
   7 H :    0.135800
   8 H :    0.116183
   9 H :    0.116183
  10 H :    0.135801
Sum of atomic charges:    0.0000000

LOEWDIN ATOMIC CHARGES
----------------------
   0 C :    0.044401
   1 S :    0.599887
   2 C :    0.044395
   3 O :   -0.258731
   4 O :   -0.258731
   5 H :   -0.031853
   6 H :   -0.031853
   7 H :   -0.021911
   8 H :   -0.031847
   9 H :   -0.031847
  10 H :   -0.021911

  Mayer bond orders larger than 0.1
B(  0-C ,  1-S ) :   0.9144 B(  0-C ,  5-H ) :   0.9617 B(  0-C ,  6-H ) :   0.9617
B(  0-C , 10-H ) :   0.9631 B(  1-S ,  2-C ) :   0.9144 B(  1-S ,  3-O ) :   1.8754
B(  1-S ,  4-O ) :   1.8754 B(  2-C ,  7-H ) :   0.9631 B(  2-C ,  8-H ) :   0.9617
B(  2-C ,  9-H ) :   0.9617

E(0)                                       ...   -626.546017445
E(0)                                       ...   -626.546017445
E(CORR)(strong-pairs)                      ...     -1.042211958
E(CORR)(weak-pairs)                        ...     -0.000792845
E(CORR)(corrected)                         ...     -1.043004803
E(TOT)                                     ...   -627.589022248
E(CCSD(T))                                 ...   -627.630914882
FINAL SINGLE POINT ENERGY      -627.630914881936

DIPOLE MOMENT
-------------
                                X             Y             Z
Electronic contribution:     -0.00011       4.53333      -0.00000
Nuclear contribution   :      0.00011      -6.53430       0.00000
                        -----------------------------------------
Total Dipole Moment    :     -0.00001      -2.00097      -0.00000
                        -----------------------------------------
Magnitude (a.u.)       :      2.00097
Magnitude (Debye)      :      5.08607

Rotational constants in cm-1:     0.155444     0.142489     0.139149
Rotational constants in MHz :  4660.081758  4271.726520  4171.578078

                             ****ORCA TERMINATED NORMALLY****
TOTAL RUN TIME: 0 days 0 hours 3 minutes 1 seconds 680 msec
