                         Program Version 4.1.x  -  STABLE  -
|  1> ! RHF DLPNO-CCSD(T) cc-pVTZ RIJK cc-pVTZ/JK cc-pVTZ/C
|  2> ! KDIIS SOSCF TightSCF TightPNO
|  3>
|  4> %pal nprocs 8 end
|  5>
|  6> %maxcore 8000
|  7>
|  8> %scf maxiter 300
|  9>      shift shift 0.2 erroff 0.1 end
| 10> end
| 11>
| 12> * xyzfile 0 1 DiPhEt_a.xyz
| 13>
| 14>
| 15>                          ****END OF INPUT****

CARTESIAN COORDINATES (ANGSTROEM)
---------------------------------
  C      3.987440   -1.206970   -0.078740
  C      2.621380   -1.204050    0.215000
  C      1.916290   -0.000360    0.364850
  C      2.620750    1.203710    0.214930
  C      3.986790    1.207330   -0.078810
  C      4.675560    0.000360   -0.227770
  C      0.429040   -0.000690    0.646120
  C     -0.429040    0.000660   -0.646090
  C     -1.916300    0.000300   -0.364840
  C     -2.620860   -1.203730   -0.215290
  C     -3.986930   -1.207300    0.078430
  C     -4.675560   -0.000320    0.227750
  C     -3.987300    1.207000    0.079090
  C     -2.621260    1.204030   -0.214630
  H      0.163660    0.877520    1.246610
  H      0.163730   -0.880210    1.244720
  H     -0.163760    0.880190   -1.244690
  H     -0.163620   -0.877530   -1.246570
  H     -2.095350   -2.148390   -0.336670
  H     -2.096000    2.148890   -0.335510
  H     -4.513430   -2.151710    0.185330
  H     -5.738110   -0.000520    0.452960
  H     -4.514150    2.151160    0.186510
  H      2.096250   -2.148950    0.336140
  H      2.095120    2.148330    0.336050
  H      4.513230    2.151760   -0.185980
  H      5.738110    0.000650   -0.453000
  H      4.514350   -2.151130   -0.185880

 Total Charge           Charge          ....    0
 Multiplicity           Mult            ....    1
 Number of Electrons    NEL             ....   98
 Basis Dimension        Dim             ....  616

ORBITAL ENERGIES
----------------

  NO   OCC          E(Eh)            E(eV)
   0   2.0000     -11.240907      -305.8806
   1   2.0000     -11.240904      -305.8805
   2   2.0000     -11.234985      -305.7195
   3   2.0000     -11.234984      -305.7195
   4   2.0000     -11.234804      -305.7145
   5   2.0000     -11.234803      -305.7145
   6   2.0000     -11.232128      -305.6417
   7   2.0000     -11.231575      -305.6267
   8   2.0000     -11.231359      -305.6208
   9   2.0000     -11.231358      -305.6208
  10   2.0000     -11.231093      -305.6136
  11   2.0000     -11.231092      -305.6136
  12   2.0000     -11.230963      -305.6100
  13   2.0000     -11.230962      -305.6100
  14   2.0000      -1.154162       -31.4063
  15   2.0000      -1.147181       -31.2164
  16   2.0000      -1.073059       -29.1994
  17   2.0000      -1.025986       -27.9185
  18   2.0000      -1.009864       -27.4798
  19   2.0000      -1.009592       -27.4724
  20   2.0000      -0.962451       -26.1896
  21   2.0000      -0.874014       -23.7831
  22   2.0000      -0.825316       -22.4580
  23   2.0000      -0.822385       -22.3782
  24   2.0000      -0.798180       -21.7196
  25   2.0000      -0.782933       -21.3047
  26   2.0000      -0.693160       -18.8618
  27   2.0000      -0.689753       -18.7691
  28   2.0000      -0.648468       -17.6457
  29   2.0000      -0.639635       -17.4054
  30   2.0000      -0.628147       -17.0927
  31   2.0000      -0.623503       -16.9664
  32   2.0000      -0.585701       -15.9377
  33   2.0000      -0.584056       -15.8930
  34   2.0000      -0.581801       -15.8316
  35   2.0000      -0.567455       -15.4412
  36   2.0000      -0.558551       -15.1989
  37   2.0000      -0.537733       -14.6324
  38   2.0000      -0.505548       -13.7567
  39   2.0000      -0.504114       -13.7176
  40   2.0000      -0.489877       -13.3302
  41   2.0000      -0.487331       -13.2609
  42   2.0000      -0.479636       -13.0516
  43   2.0000      -0.474753       -12.9187
  44   2.0000      -0.467726       -12.7275
  45   2.0000      -0.334440        -9.1006
  46   2.0000      -0.333808        -9.0834
  47   2.0000      -0.331109        -9.0099
  48   2.0000      -0.318115        -8.6563
  49   0.0000       0.121305         3.3009
  50   0.0000       0.124837         3.3970
  51   0.0000       0.125815         3.4236
  52   0.0000       0.130105         3.5403
  53   0.0000       0.138590         3.7712

MULLIKEN ATOMIC CHARGES
-----------------------
   0 C :   -0.135042
   1 C :   -0.199142
   2 C :    0.077255
   3 C :   -0.199192
   4 C :   -0.135059
   5 C :   -0.172876
   6 C :   -0.212402
   7 C :   -0.212408
   8 C :    0.077265
   9 C :   -0.199191
  10 C :   -0.135060
  11 C :   -0.172880
  12 C :   -0.135042
  13 C :   -0.199154
  14 H :    0.117234
  15 H :    0.117172
  16 H :    0.117177
  17 H :    0.117235
  18 H :    0.145259
  19 H :    0.145251
  20 H :    0.150411
  21 H :    0.150728
  22 H :    0.150410
  23 H :    0.145250
  24 H :    0.145263
  25 H :    0.150401
  26 H :    0.150727
  27 H :    0.150411
Sum of atomic charges:   -0.0000000

LOEWDIN ATOMIC CHARGES
----------------------
   0 C :    0.027822
   1 C :    0.029777
   2 C :   -0.037580
   3 C :    0.029788
   4 C :    0.027814
   5 C :    0.020051
   6 C :    0.069035
   7 C :    0.069039
   8 C :   -0.037583
   9 C :    0.029788
  10 C :    0.027819
  11 C :    0.020053
  12 C :    0.027825
  13 C :    0.029776
  14 H :   -0.018425
  15 H :   -0.018430
  16 H :   -0.018431
  17 H :   -0.018430
  18 H :   -0.026045
  19 H :   -0.026048
  20 H :   -0.025210
  21 H :   -0.027344
  22 H :   -0.025209
  23 H :   -0.026050
  24 H :   -0.026048
  25 H :   -0.025202
  26 H :   -0.027342
  27 H :   -0.025209

  Mayer bond orders larger than 0.1
B(  0-C ,  1-C ) :   1.3897 B(  0-C ,  5-C ) :   1.3762 B(  0-C , 27-H ) :   0.9778
B(  1-C ,  2-C ) :   1.3578 B(  1-C , 23-H ) :   0.9778 B(  2-C ,  3-C ) :   1.3577
B(  2-C ,  6-C ) :   0.9689 B(  3-C ,  4-C ) :   1.3898 B(  3-C , 24-H ) :   0.9778
B(  4-C ,  5-C ) :   1.3761 B(  4-C , 25-H ) :   0.9778 B(  5-C , 26-H ) :   0.9784
B(  6-C ,  7-C ) :   0.9175 B(  6-C , 14-H ) :   0.9903 B(  6-C , 15-H ) :   0.9903
B(  7-C ,  8-C ) :   0.9689 B(  7-C , 16-H ) :   0.9903 B(  7-C , 17-H ) :   0.9903
B(  8-C ,  9-C ) :   1.3578 B(  8-C , 13-C ) :   1.3577 B(  9-C , 10-C ) :   1.3897
B(  9-C , 18-H ) :   0.9778 B( 10-C , 11-C ) :   1.3762 B( 10-C , 20-H ) :   0.9778
B( 11-C , 12-C ) :   1.3761 B( 11-C , 21-H ) :   0.9784 B( 12-C , 13-C ) :   1.3898
B( 12-C , 22-H ) :   0.9778 B( 13-C , 19-H ) :   0.9778

E(0)                                       ...   -538.490345829
E(0)                                       ...   -538.490345829
E(CORR)(strong-pairs)                      ...     -2.288575266
E(CORR)(weak-pairs)                        ...     -0.003482398
E(CORR)(corrected)                         ...     -2.292057664
E(TOT)                                     ...   -540.782403492
E(CCSD(T))                                 ...   -540.898190569
FINAL SINGLE POINT ENERGY      -540.898190568896

DIPOLE MOMENT
-------------
                                X             Y             Z
Electronic contribution:     -0.00004      -0.00008      -0.00002
Nuclear contribution   :      0.00003       0.00008       0.00002
                        -----------------------------------------
Total Dipole Moment    :     -0.00001      -0.00000       0.00000
                        -----------------------------------------
Magnitude (a.u.)       :      0.00001
Magnitude (Debye)      :      0.00004

Rotational constants in cm-1:     0.082524     0.008862     0.008191
Rotational constants in MHz :  2474.015231   265.682182   245.569786

                             ****ORCA TERMINATED NORMALLY****
TOTAL RUN TIME: 0 days 1 hours 12 minutes 3 seconds 537 msec
