                         Program Version 4.1.x  -  STABLE  -
|  1> ! RHF DLPNO-CCSD(T) cc-pVTZ RIJK cc-pVTZ/JK cc-pVTZ/C
|  2> ! KDIIS SOSCF TightSCF TightPNO
|  3>
|  4> %pal nprocs 8 end
|  5>
|  6> %maxcore 8000
|  7>
|  8> %scf maxiter 300
|  9>      shift shift 0.2 erroff 0.1 end
| 10> end
| 11>
| 12> * xyzfile 0 1 DiPhEt_g.xyz
| 13>
| 14>
| 15>                          ****END OF INPUT****

CARTESIAN COORDINATES (ANGSTROEM)
---------------------------------
  C     -2.347630   -1.489270   -0.981090
  C     -1.452620   -0.427900   -1.143580
  C     -1.557370    0.730690   -0.360620
  C     -2.587580    0.797640    0.590740
  C     -3.483720   -0.260370    0.758880
  C     -3.365980   -1.410130   -0.027980
  C     -0.581180    1.877450   -0.516700
  C      0.581140    1.877460    0.516720
  C      1.557360    0.730710    0.360620
  C      1.452720   -0.427830    1.143660
  C      2.347750   -1.489180    0.981170
  C      3.365980   -1.410080    0.027980
  C      3.483640   -0.260380   -0.758970
  C      2.587490    0.797630   -0.590840
  H     -1.120480    2.827160   -0.412500
  H     -0.155560    1.865340   -1.526780
  H      1.120430    2.827170    0.412530
  H      0.155520    1.865320    1.526800
  H      0.662120   -0.499750    1.885940
  H      2.693010    1.691820   -1.201670
  H      2.248850   -2.376540    1.600300
  H      4.064140   -2.232760   -0.097250
  H      4.276960   -0.184440   -1.497610
  H     -0.661970   -0.499850   -1.885790
  H     -2.693170    1.691870    1.201490
  H     -4.277100   -0.184400    1.497450
  H     -4.064130   -2.232820    0.097260
  H     -2.248640   -2.376670   -1.600150

 Total Charge           Charge          ....    0
 Multiplicity           Mult            ....    1
 Number of Electrons    NEL             ....   98
 Basis Dimension        Dim             ....  616

ORBITAL ENERGIES
----------------

  NO   OCC          E(Eh)            E(eV)
   0   2.0000     -11.237935      -305.7998
   1   2.0000     -11.237933      -305.7997
   2   2.0000     -11.232793      -305.6598
   3   2.0000     -11.232622      -305.6552
   4   2.0000     -11.232622      -305.6552
   5   2.0000     -11.232249      -305.6450
   6   2.0000     -11.231403      -305.6220
   7   2.0000     -11.231399      -305.6219
   8   2.0000     -11.229236      -305.5631
   9   2.0000     -11.229236      -305.5631
  10   2.0000     -11.229025      -305.5573
  11   2.0000     -11.229023      -305.5572
  12   2.0000     -11.227188      -305.5073
  13   2.0000     -11.227187      -305.5073
  14   2.0000      -1.152515       -31.3615
  15   2.0000      -1.143600       -31.1189
  16   2.0000      -1.071194       -29.1487
  17   2.0000      -1.022004       -27.8101
  18   2.0000      -1.007011       -27.4022
  19   2.0000      -1.006782       -27.3959
  20   2.0000      -0.962817       -26.1996
  21   2.0000      -0.873015       -23.7559
  22   2.0000      -0.822023       -22.3684
  23   2.0000      -0.820663       -22.3314
  24   2.0000      -0.800259       -21.7762
  25   2.0000      -0.775423       -21.1003
  26   2.0000      -0.691819       -18.8254
  27   2.0000      -0.685431       -18.6515
  28   2.0000      -0.643375       -17.5071
  29   2.0000      -0.638685       -17.3795
  30   2.0000      -0.622754       -16.9460
  31   2.0000      -0.621310       -16.9067
  32   2.0000      -0.587417       -15.9844
  33   2.0000      -0.581422       -15.8213
  34   2.0000      -0.578298       -15.7363
  35   2.0000      -0.571883       -15.5617
  36   2.0000      -0.556693       -15.1484
  37   2.0000      -0.532722       -14.4961
  38   2.0000      -0.513706       -13.9787
  39   2.0000      -0.493810       -13.4373
  40   2.0000      -0.489281       -13.3140
  41   2.0000      -0.483928       -13.1683
  42   2.0000      -0.476821       -12.9749
  43   2.0000      -0.470762       -12.8101
  44   2.0000      -0.466777       -12.7016
  45   2.0000      -0.334399        -9.0995
  46   2.0000      -0.331001        -9.0070
  47   2.0000      -0.322800        -8.7838
  48   2.0000      -0.318404        -8.6642
  49   0.0000       0.121907         3.3173
  50   0.0000       0.127476         3.4688
  51   0.0000       0.127802         3.4777
  52   0.0000       0.131044         3.5659
  53   0.0000       0.145005         3.9458

MULLIKEN ATOMIC CHARGES
-----------------------
   0 C :   -0.138183
   1 C :   -0.176662
   2 C :    0.062899
   3 C :   -0.196788
   4 C :   -0.142130
   5 C :   -0.171390
   6 C :   -0.213870
   7 C :   -0.213860
   8 C :    0.062877
   9 C :   -0.176646
  10 C :   -0.138177
  11 C :   -0.171380
  12 C :   -0.142133
  13 C :   -0.196788
  14 H :    0.118690
  15 H :    0.109029
  16 H :    0.118696
  17 H :    0.109026
  18 H :    0.152077
  19 H :    0.146226
  20 H :    0.150029
  21 H :    0.150449
  22 H :    0.149609
  23 H :    0.152087
  24 H :    0.146225
  25 H :    0.149610
  26 H :    0.150452
  27 H :    0.150030
Sum of atomic charges:    0.0000000

LOEWDIN ATOMIC CHARGES
----------------------
   0 C :    0.027940
   1 C :    0.036846
   2 C :   -0.039578
   3 C :    0.027345
   4 C :    0.024675
   5 C :    0.019568
   6 C :    0.069070
   7 C :    0.069077
   8 C :   -0.039575
   9 C :    0.036843
  10 C :    0.027933
  11 C :    0.019558
  12 C :    0.024678
  13 C :    0.027347
  14 H :   -0.017650
  15 H :   -0.019196
  16 H :   -0.017654
  17 H :   -0.019196
  18 H :   -0.023764
  19 H :   -0.026450
  20 H :   -0.025171
  21 H :   -0.027678
  22 H :   -0.025946
  23 H :   -0.023768
  24 H :   -0.026451
  25 H :   -0.025946
  26 H :   -0.027681
  27 H :   -0.025174

  Mayer bond orders larger than 0.1
B(  0-C ,  1-C ) :   1.3821 B(  0-C ,  5-C ) :   1.3800 B(  0-C , 27-H ) :   0.9786
B(  1-C ,  2-C ) :   1.3672 B(  1-C , 23-H ) :   0.9734 B(  2-C ,  3-C ) :   1.3550
B(  2-C ,  6-C ) :   0.9749 B(  3-C ,  4-C ) :   1.3940 B(  3-C , 24-H ) :   0.9770
B(  4-C ,  5-C ) :   1.3711 B(  4-C , 25-H ) :   0.9785 B(  5-C , 26-H ) :   0.9784
B(  6-C ,  7-C ) :   0.9200 B(  6-C , 14-H ) :   0.9903 B(  6-C , 15-H ) :   0.9897
B(  7-C ,  8-C ) :   0.9749 B(  7-C , 16-H ) :   0.9903 B(  7-C , 17-H ) :   0.9897
B(  8-C ,  9-C ) :   1.3672 B(  8-C , 13-C ) :   1.3549 B(  9-C , 10-C ) :   1.3821
B(  9-C , 18-H ) :   0.9734 B( 10-C , 11-C ) :   1.3800 B( 10-C , 20-H ) :   0.9786
B( 11-C , 12-C ) :   1.3711 B( 11-C , 21-H ) :   0.9784 B( 12-C , 13-C ) :   1.3940
B( 12-C , 22-H ) :   0.9785 B( 13-C , 19-H ) :   0.9770

E(0)                                       ...   -538.488583370
E(0)                                       ...   -538.488583370
E(CORR)(strong-pairs)                      ...     -2.290439183
E(CORR)(weak-pairs)                        ...     -0.003513493
E(CORR)(corrected)                         ...     -2.293952676
E(TOT)                                     ...   -540.782536046
E(CCSD(T))                                 ...   -540.898641201
FINAL SINGLE POINT ENERGY      -540.898641200654

DIPOLE MOMENT
-------------
                                X             Y             Z
Electronic contribution:      0.00003      -2.09259      -0.00002
Nuclear contribution   :     -0.00002       2.20280       0.00003
                        -----------------------------------------
Total Dipole Moment    :      0.00001       0.11021       0.00000
                        -----------------------------------------
Magnitude (a.u.)       :      0.11021
Magnitude (Debye)      :      0.28013

Rotational constants in cm-1:     0.044154     0.014243     0.012550
Rotational constants in MHz :  1323.698038   426.984336   376.229824

                             ****ORCA TERMINATED NORMALLY****
TOTAL RUN TIME: 0 days 1 hours 47 minutes 21 seconds 483 msec
