                         Program Version 4.1.x  -  STABLE  -
|  1> ! RHF DLPNO-CCSD(T) cc-pVTZ RIJK cc-pVTZ/JK cc-pVTZ/C
|  2> ! KDIIS SOSCF TightSCF TightPNO
|  3>
|  4> %pal nprocs 8 end
|  5>
|  6> %maxcore 8000
|  7>
|  8> %scf maxiter 300
|  9>      shift shift 0.2 erroff 0.1 end
| 10> end
| 11>
| 12> * xyzfile 0 1 Et4C_T1.xyz
| 13>
| 14>
| 15>                          ****END OF INPUT****

CARTESIAN COORDINATES (ANGSTROEM)
---------------------------------
  C      1.838020   -1.875300    0.255850
  C      0.874060   -0.889030    0.930340
  C     -0.001290   -0.000710    0.000000
  C     -0.876550    0.887900    0.930170
  C     -1.832160    1.882160    0.255550
  C     -0.889800   -0.876190   -0.930050
  C     -1.879270   -1.836620   -0.255230
  C      0.887160    0.874410   -0.930460
  C      1.878880    1.832870   -0.256160
  H      2.391840   -2.439590    1.014320
  H      1.312740   -2.603440   -0.371190
  H      2.575640   -1.366480   -0.374090
  H     -2.443870   -2.390390   -1.013510
  H     -1.373050   -2.574350    0.376670
  H     -2.606980   -1.308510    0.369910
  H      2.442800    2.386950   -1.014720
  H      1.374610    2.570400    0.377530
  H      2.607090    1.303140    0.367060
  H      1.451480   -0.230910    1.591880
  H      0.206790   -1.450090    1.597020
  H     -1.448250   -0.209170   -1.599160
  H     -1.460500    0.229800    1.585970
  H     -0.209610    1.442480    1.602570
  H     -2.385720    2.446850    1.013920
  H     -1.300230    2.609560   -0.366720
  H     -2.570190    1.379910   -0.379170
  H     -0.231730   -1.456420   -1.589180
  H      0.229000    1.456120   -1.588190
  H      1.443800    0.207210   -1.600910

 Total Charge           Charge          ....    0
 Multiplicity           Mult            ....    1
 Number of Electrons    NEL             ....   74
 Basis Dimension        Dim             ....  550

ORBITAL ENERGIES
----------------

  NO   OCC          E(Eh)            E(eV)
   0   2.0000     -11.229035      -305.5576
   1   2.0000     -11.213279      -305.1288
   2   2.0000     -11.213269      -305.1286
   3   2.0000     -11.213259      -305.1283
   4   2.0000     -11.213227      -305.1274
   5   2.0000     -11.209966      -305.0387
   6   2.0000     -11.209966      -305.0387
   7   2.0000     -11.209965      -305.0386
   8   2.0000     -11.209963      -305.0386
   9   2.0000      -1.113480       -30.2993
  10   2.0000      -1.009909       -27.4810
  11   2.0000      -1.009901       -27.4808
  12   2.0000      -0.997904       -27.1544
  13   2.0000      -0.918396       -24.9908
  14   2.0000      -0.864954       -23.5366
  15   2.0000      -0.816003       -22.2046
  16   2.0000      -0.816000       -22.2045
  17   2.0000      -0.705043       -19.1852
  18   2.0000      -0.641784       -17.4638
  19   2.0000      -0.641784       -17.4638
  20   2.0000      -0.619464       -16.8565
  21   2.0000      -0.560620       -15.2552
  22   2.0000      -0.559424       -15.2227
  23   2.0000      -0.559404       -15.2222
  24   2.0000      -0.554886       -15.0992
  25   2.0000      -0.552976       -15.0472
  26   2.0000      -0.541410       -14.7325
  27   2.0000      -0.521246       -14.1838
  28   2.0000      -0.501293       -13.6409
  29   2.0000      -0.501282       -13.6406
  30   2.0000      -0.483287       -13.1509
  31   2.0000      -0.481020       -13.0892
  32   2.0000      -0.481015       -13.0891
  33   2.0000      -0.461169       -12.5490
  34   2.0000      -0.426941       -11.6176
  35   2.0000      -0.426934       -11.6175
  36   2.0000      -0.420594       -11.4449
  37   0.0000       0.133618         3.6359
  38   0.0000       0.159895         4.3510
  39   0.0000       0.159898         4.3511
  40   0.0000       0.164835         4.4854
  41   0.0000       0.183057         4.9812

MULLIKEN ATOMIC CHARGES
-----------------------
   0 C :   -0.311126
   1 C :   -0.223605
   2 C :    0.040583
   3 C :   -0.223391
   4 C :   -0.311113
   5 C :   -0.223070
   6 C :   -0.311123
   7 C :   -0.223918
   8 C :   -0.311111
   9 H :    0.108690
  10 H :    0.095251
  11 H :    0.095155
  12 H :    0.108682
  13 H :    0.095130
  14 H :    0.095162
  15 H :    0.108690
  16 H :    0.095240
  17 H :    0.095231
  18 H :    0.112696
  19 H :    0.112748
  20 H :    0.112596
  21 H :    0.112767
  22 H :    0.112593
  23 H :    0.108683
  24 H :    0.095152
  25 H :    0.095205
  26 H :    0.112634
  27 H :    0.112835
  28 H :    0.112734
Sum of atomic charges:    0.0000000

LOEWDIN ATOMIC CHARGES
----------------------
   0 C :    0.108480
   1 C :    0.057023
   2 C :   -0.076747
   3 C :    0.057051
   4 C :    0.108472
   5 C :    0.057076
   6 C :    0.108475
   7 C :    0.056997
   8 C :    0.108475
   9 H :   -0.027797
  10 H :   -0.032704
  11 H :   -0.032546
  12 H :   -0.027804
  13 H :   -0.032564
  14 H :   -0.032719
  15 H :   -0.027789
  16 H :   -0.032543
  17 H :   -0.032682
  18 H :   -0.026720
  19 H :   -0.026548
  20 H :   -0.026553
  21 H :   -0.026714
  22 H :   -0.026566
  23 H :   -0.027798
  24 H :   -0.032699
  25 H :   -0.032560
  26 H :   -0.026722
  27 H :   -0.026721
  28 H :   -0.026550

  Mayer bond orders larger than 0.1
B(  0-C ,  1-C ) :   0.9496 B(  0-C ,  9-H ) :   0.9870 B(  0-C , 10-H ) :   0.9813
B(  0-C , 11-H ) :   0.9813 B(  1-C ,  2-C ) :   0.9565 B(  1-C , 18-H ) :   0.9858
B(  1-C , 19-H ) :   0.9856 B(  2-C ,  3-C ) :   0.9565 B(  2-C ,  5-C ) :   0.9566
B(  2-C ,  7-C ) :   0.9564 B(  3-C ,  4-C ) :   0.9496 B(  3-C , 21-H ) :   0.9858
B(  3-C , 22-H ) :   0.9856 B(  4-C , 23-H ) :   0.9870 B(  4-C , 24-H ) :   0.9813
B(  4-C , 25-H ) :   0.9813 B(  5-C ,  6-C ) :   0.9496 B(  5-C , 20-H ) :   0.9856
B(  5-C , 26-H ) :   0.9858 B(  6-C , 12-H ) :   0.9870 B(  6-C , 13-H ) :   0.9814
B(  6-C , 14-H ) :   0.9813 B(  7-C ,  8-C ) :   0.9496 B(  7-C , 27-H ) :   0.9858
B(  7-C , 28-H ) :   0.9856 B(  8-C , 15-H ) :   0.9870 B(  8-C , 16-H ) :   0.9813
B(  8-C , 17-H ) :   0.9813

E(0)                                       ...   -352.575485120
E(0)                                       ...   -352.575485120
E(CORR)(strong-pairs)                      ...     -1.705106297
E(CORR)(weak-pairs)                        ...     -0.002005537
E(CORR)(corrected)                         ...     -1.707111834
E(TOT)                                     ...   -354.282596954
E(CCSD(T))                                 ...   -354.349457047
FINAL SINGLE POINT ENERGY      -354.349457046851

DIPOLE MOMENT
-------------
                                X             Y             Z
Electronic contribution:     -0.00639      -0.00345       0.00001
Nuclear contribution   :      0.00614       0.00332      -0.00001
                        -----------------------------------------
Total Dipole Moment    :     -0.00024      -0.00013       0.00000
                        -----------------------------------------
Magnitude (a.u.)       :      0.00027
Magnitude (Debye)      :      0.00070

Rotational constants in cm-1:     0.049581     0.049569     0.031269
Rotational constants in MHz :  1486.393630  1486.045909   937.415532

                             ****ORCA TERMINATED NORMALLY****
TOTAL RUN TIME: 0 days 0 hours 33 minutes 20 seconds 578 msec
