                         Program Version 4.1.x  -  STABLE  -
|  1> ! RHF DLPNO-CCSD(T) cc-pVTZ RIJK cc-pVTZ/JK cc-pVTZ/C
|  2> ! KDIIS SOSCF TightSCF TightPNO
|  3>
|  4> %pal nprocs 8 end
|  5>
|  6> %maxcore 8000
|  7>
|  8> %scf maxiter 300
|  9>      shift shift 0.2 erroff 0.1 end
| 10> end
| 11>
| 12> * xyzfile 0 1 Et4C_T3.xyz
| 13>
| 14>
| 15>                          ****END OF INPUT****

CARTESIAN COORDINATES (ANGSTROEM)
---------------------------------
  C      1.914440    0.196430   -1.810630
  C      0.883030    0.899300   -0.914430
  C     -0.000120   -0.000130   -0.000050
  C     -0.883310    0.914140    0.899450
  C     -1.913550    1.811640    0.196500
  C      0.883180   -0.899540    0.914200
  C      1.914200   -0.196610    1.810810
  C     -0.883370   -0.914460   -0.899420
  C     -1.914580   -1.810860   -0.196470
  H      2.458250    0.937180   -2.407400
  H      2.656570   -0.361570   -1.230160
  H      1.446900   -0.502340   -2.511530
  H      2.458430   -0.937410    2.407150
  H      2.656030    0.362120    1.230660
  H      1.446300    0.501510    2.512110
  H     -2.457990   -2.408080   -0.937150
  H     -1.446920   -2.511320    0.502650
  H     -2.657070   -1.230490    0.361160
  H      0.220880    1.491930   -1.557170
  H      1.409650    1.626980   -0.283140
  H      0.221120   -1.492580    1.556670
  H     -1.410960    0.282620    1.626170
  H     -0.221160    1.555930    1.493120
  H     -2.457890    2.407810    0.937350
  H     -1.444950    2.513120   -0.500980
  H     -2.655350    1.232150   -0.362950
  H      1.410170   -1.626830    0.282790
  H     -0.221290   -1.557050   -1.492300
  H     -1.410220   -0.283110   -1.626860

 Total Charge           Charge          ....    0
 Multiplicity           Mult            ....    1
 Number of Electrons    NEL             ....   74
 Basis Dimension        Dim             ....  550

ORBITAL ENERGIES
----------------

  NO   OCC          E(Eh)            E(eV)
   0   2.0000     -11.229634      -305.5739
   1   2.0000     -11.213504      -305.1350
   2   2.0000     -11.213503      -305.1349
   3   2.0000     -11.213503      -305.1349
   4   2.0000     -11.213466      -305.1339
   5   2.0000     -11.209558      -305.0276
   6   2.0000     -11.209558      -305.0276
   7   2.0000     -11.209557      -305.0276
   8   2.0000     -11.209557      -305.0276
   9   2.0000      -1.112599       -30.2754
  10   2.0000      -1.010954       -27.5095
  11   2.0000      -1.003541       -27.3077
  12   2.0000      -1.003537       -27.3076
  13   2.0000      -0.916076       -24.9277
  14   2.0000      -0.841620       -22.9017
  15   2.0000      -0.841607       -22.9013
  16   2.0000      -0.819604       -22.3026
  17   2.0000      -0.701528       -19.0896
  18   2.0000      -0.642147       -17.4737
  19   2.0000      -0.610484       -16.6121
  20   2.0000      -0.609621       -16.5886
  21   2.0000      -0.609602       -16.5881
  22   2.0000      -0.581832       -15.8325
  23   2.0000      -0.555130       -15.1058
  24   2.0000      -0.555106       -15.1052
  25   2.0000      -0.536497       -14.5988
  26   2.0000      -0.515772       -14.0349
  27   2.0000      -0.515758       -14.0345
  28   2.0000      -0.503347       -13.6968
  29   2.0000      -0.500367       -13.6157
  30   2.0000      -0.498704       -13.5704
  31   2.0000      -0.482957       -13.1419
  32   2.0000      -0.482946       -13.1416
  33   2.0000      -0.458651       -12.4805
  34   2.0000      -0.427680       -11.6378
  35   2.0000      -0.421197       -11.4613
  36   2.0000      -0.421196       -11.4613
  37   0.0000       0.138918         3.7801
  38   0.0000       0.151105         4.1118
  39   0.0000       0.159272         4.3340
  40   0.0000       0.159278         4.3342
  41   0.0000       0.190526         5.1845

MULLIKEN ATOMIC CHARGES
-----------------------
   0 C :   -0.311543
   1 C :   -0.213742
   2 C :    0.025105
   3 C :   -0.213687
   4 C :   -0.311552
   5 C :   -0.213739
   6 C :   -0.311545
   7 C :   -0.213701
   8 C :   -0.311535
   9 H :    0.108428
  10 H :    0.094141
  11 H :    0.096765
  12 H :    0.108425
  13 H :    0.094143
  14 H :    0.096764
  15 H :    0.108427
  16 H :    0.096759
  17 H :    0.094139
  18 H :    0.112326
  19 H :    0.107333
  20 H :    0.112335
  21 H :    0.107310
  22 H :    0.112329
  23 H :    0.108429
  24 H :    0.096769
  25 H :    0.094146
  26 H :    0.107328
  27 H :    0.112318
  28 H :    0.107323
Sum of atomic charges:   -0.0000000

LOEWDIN ATOMIC CHARGES
----------------------
   0 C :    0.108555
   1 C :    0.058485
   2 C :   -0.076605
   3 C :    0.058495
   4 C :    0.108556
   5 C :    0.058492
   6 C :    0.108552
   7 C :    0.058496
   8 C :    0.108561
   9 H :   -0.028082
  10 H :   -0.033288
  11 H :   -0.033148
  12 H :   -0.028078
  13 H :   -0.033290
  14 H :   -0.033156
  15 H :   -0.028084
  16 H :   -0.033155
  17 H :   -0.033290
  18 H :   -0.026958
  19 H :   -0.026410
  20 H :   -0.026957
  21 H :   -0.026416
  22 H :   -0.026959
  23 H :   -0.028081
  24 H :   -0.033143
  25 H :   -0.033291
  26 H :   -0.026416
  27 H :   -0.026959
  28 H :   -0.026426

  Mayer bond orders larger than 0.1
B(  0-C ,  1-C ) :   0.9489 B(  0-C ,  9-H ) :   0.9866 B(  0-C , 10-H ) :   0.9821
B(  0-C , 11-H ) :   0.9817 B(  1-C ,  2-C ) :   0.9553 B(  1-C , 18-H ) :   0.9873
B(  1-C , 19-H ) :   0.9854 B(  2-C ,  3-C ) :   0.9553 B(  2-C ,  5-C ) :   0.9553
B(  2-C ,  7-C ) :   0.9554 B(  3-C ,  4-C ) :   0.9489 B(  3-C , 21-H ) :   0.9854
B(  3-C , 22-H ) :   0.9873 B(  4-C , 23-H ) :   0.9866 B(  4-C , 24-H ) :   0.9817
B(  4-C , 25-H ) :   0.9821 B(  5-C ,  6-C ) :   0.9489 B(  5-C , 20-H ) :   0.9873
B(  5-C , 26-H ) :   0.9854 B(  6-C , 12-H ) :   0.9866 B(  6-C , 13-H ) :   0.9821
B(  6-C , 14-H ) :   0.9817 B(  7-C ,  8-C ) :   0.9489 B(  7-C , 27-H ) :   0.9873
B(  7-C , 28-H ) :   0.9854 B(  8-C , 15-H ) :   0.9866 B(  8-C , 16-H ) :   0.9817
B(  8-C , 17-H ) :   0.9821

E(0)                                       ...   -352.574091925
E(0)                                       ...   -352.574091925
E(CORR)(strong-pairs)                      ...     -1.705040973
E(CORR)(weak-pairs)                        ...     -0.001968702
E(CORR)(corrected)                         ...     -1.707009676
E(TOT)                                     ...   -354.281101601
E(CCSD(T))                                 ...   -354.347973000
FINAL SINGLE POINT ENERGY      -354.347972999813

DIPOLE MOMENT
-------------
                                X             Y             Z
Electronic contribution:     -0.00054      -0.00063      -0.00023
Nuclear contribution   :      0.00054       0.00061       0.00022
                        -----------------------------------------
Total Dipole Moment    :     -0.00000      -0.00002      -0.00001
                        -----------------------------------------
Magnitude (a.u.)       :      0.00002
Magnitude (Debye)      :      0.00005

Rotational constants in cm-1:     0.051363     0.037708     0.037704
Rotational constants in MHz :  1539.824790  1130.467492  1130.322569

                             ****ORCA TERMINATED NORMALLY****
TOTAL RUN TIME: 0 days 0 hours 46 minutes 40 seconds 514 msec
