                         Program Version 4.1.x  -  STABLE  -
|  1> ! RHF DLPNO-CCSD(T) cc-pVTZ RIJK cc-pVTZ/JK cc-pVTZ/C
|  2> ! KDIIS SOSCF TightSCF TightPNO
|  3>
|  4> %pal nprocs 8 end
|  5>
|  6> %maxcore 8000
|  7>
|  8> %scf maxiter 300
|  9>      shift shift 0.2 erroff 0.1 end
| 10> end
| 11>
| 12> * xyzfile 0 1 Et_P_Me2_g.xyz
| 13>
| 14>
| 15>                          ****END OF INPUT****

CARTESIAN COORDINATES (ANGSTROEM)
---------------------------------
  C      0.670240    1.633150    0.284370
  P      0.450400   -0.002120   -0.590980
  C      1.818310   -0.967120    0.235570
  C     -1.013720   -0.692480    0.357300
  C     -2.350610   -0.040820   -0.021830
  H     -1.050270   -1.765660    0.130440
  H     -0.833900   -0.601100    1.437770
  H     -3.182460   -0.515380    0.510750
  H     -2.367330    1.024990    0.231020
  H     -2.545750   -0.130860   -1.095940
  H      1.605620    2.097110   -0.044850
  H     -0.144570    2.312810    0.017160
  H      0.697050    1.523780    1.375820
  H      2.788030   -0.587580   -0.102010
  H      1.777720   -0.902840    1.330050
  H      1.754610   -2.019840   -0.058040

 Total Charge           Charge          ....    0
 Multiplicity           Mult            ....    1
 Number of Electrons    NEL             ....   50
 Basis Dimension        Dim             ....  308

ORBITAL ENERGIES
----------------

  NO   OCC          E(Eh)            E(eV)
   0   2.0000     -79.928408     -2174.9626
   1   2.0000     -11.225674      -305.4661
   2   2.0000     -11.219617      -305.3013
   3   2.0000     -11.219369      -305.2946
   4   2.0000     -11.219127      -305.2880
   5   2.0000      -7.468345      -203.2240
   6   2.0000      -5.362111      -145.9105
   7   2.0000      -5.362020      -145.9080
   8   2.0000      -5.361018      -145.8807
   9   2.0000      -1.038037       -28.2464
  10   2.0000      -0.978534       -26.6273
  11   2.0000      -0.929504       -25.2931
  12   2.0000      -0.847136       -23.0517
  13   2.0000      -0.708131       -19.2692
  14   2.0000      -0.613453       -16.6929
  15   2.0000      -0.587910       -15.9979
  16   2.0000      -0.575765       -15.6674
  17   2.0000      -0.564459       -15.3597
  18   2.0000      -0.546959       -14.8835
  19   2.0000      -0.541814       -14.7435
  20   2.0000      -0.512032       -13.9331
  21   2.0000      -0.495352       -13.4792
  22   2.0000      -0.445982       -12.1358
  23   2.0000      -0.429223       -11.6798
  24   2.0000      -0.327082        -8.9004
  25   0.0000       0.138185         3.7602
  26   0.0000       0.146719         3.9924
  27   0.0000       0.156426         4.2566
  28   0.0000       0.180522         4.9123
  29   0.0000       0.193437         5.2637

MULLIKEN ATOMIC CHARGES
-----------------------
   0 C :   -0.366892
   1 P :    0.159842
   2 C :   -0.364779
   3 C :   -0.244075
   4 C :   -0.291639
   5 H :    0.100951
   6 H :    0.094875
   7 H :    0.103684
   8 H :    0.091653
   9 H :    0.101026
  10 H :    0.110543
  11 H :    0.107410
  12 H :    0.092599
  13 H :    0.106850
  14 H :    0.092016
  15 H :    0.105934
Sum of atomic charges:    0.0000000

LOEWDIN ATOMIC CHARGES
----------------------
   0 C :   -0.024208
   1 P :    0.482897
   2 C :   -0.024044
   3 C :   -0.073762
   4 C :    0.084847
   5 H :   -0.040346
   6 H :   -0.047876
   7 H :   -0.029924
   8 H :   -0.032633
   9 H :   -0.029108
  10 H :   -0.041003
  11 H :   -0.043778
  12 H :   -0.049062
  13 H :   -0.041342
  14 H :   -0.049025
  15 H :   -0.041633

  Mayer bond orders larger than 0.1
B(  0-C ,  1-P ) :   0.9814 B(  0-C , 10-H ) :   0.9735 B(  0-C , 11-H ) :   0.9731
B(  0-C , 12-H ) :   0.9669 B(  1-P ,  2-C ) :   0.9886 B(  1-P ,  3-C ) :   0.9908
B(  2-C , 13-H ) :   0.9744 B(  2-C , 14-H ) :   0.9668 B(  2-C , 15-H ) :   0.9736
B(  3-C ,  4-C ) :   0.9502 B(  3-C ,  5-H ) :   0.9742 B(  3-C ,  6-H ) :   0.9724
B(  4-C ,  7-H ) :   0.9821 B(  4-C ,  8-H ) :   0.9819 B(  4-C ,  9-H ) :   0.9784

E(0)                                       ...   -498.690704421
E(0)                                       ...   -498.690704421
E(CORR)(strong-pairs)                      ...     -0.936985692
E(CORR)(weak-pairs)                        ...     -0.000670558
E(CORR)(corrected)                         ...     -0.937656250
E(TOT)                                     ...   -499.628360672
E(CCSD(T))                                 ...   -499.665257184
FINAL SINGLE POINT ENERGY      -499.665257183879

DIPOLE MOMENT
-------------
                                X             Y             Z
Electronic contribution:      2.00456      -0.47825      -3.96198
Nuclear contribution   :     -2.01156       0.45588       4.47604
                        -----------------------------------------
Total Dipole Moment    :     -0.00701      -0.02237       0.51405
                        -----------------------------------------
Magnitude (a.u.)       :      0.51459
Magnitude (Debye)      :      1.30798

Rotational constants in cm-1:     0.182378     0.087513     0.069409
Rotational constants in MHz :  5467.547932  2623.583841  2080.818396

                             ****ORCA TERMINATED NORMALLY****
TOTAL RUN TIME: 0 days 0 hours 4 minutes 32 seconds 196 msec
