                         Program Version 4.1.x  -  STABLE  -
|  1> ! RHF DLPNO-CCSD(T) cc-pVTZ RIJK cc-pVTZ/JK cc-pVTZ/C
|  2> ! KDIIS SOSCF TightSCF TightPNO
|  3>
|  4> %pal nprocs 8 end
|  5>
|  6> %maxcore 8000
|  7>
|  8> %scf maxiter 300
|  9>      shift shift 0.2 erroff 0.1 end
| 10> end
| 11>
| 12> * xyzfile 0 1 Et_P_Me2_a.xyz
| 13>
| 14>
| 15>                          ****END OF INPUT****

CARTESIAN COORDINATES (ANGSTROEM)
---------------------------------
  C      1.017070    1.427050    0.496510
  P      0.669810   -0.000000   -0.657170
  C      1.017120   -1.427020    0.496530
  C     -1.209700   -0.000030   -0.708000
  C     -2.002520   -0.000000    0.605070
  H     -1.484850    0.873580   -1.313200
  H     -1.484830   -0.873680   -1.313150
  H     -3.080250   -0.000060    0.403070
  H     -1.786220   -0.884540    1.212980
  H     -1.786300    0.884610    1.212900
  H      2.097730    1.491710    0.659270
  H      0.698630    2.363470    0.026670
  H      0.525300    1.334950    1.471140
  H      2.097760   -1.491500    0.659450
  H      0.525180   -1.335020    1.471090
  H      0.698900   -2.363480    0.026630

 Total Charge           Charge          ....    0
 Multiplicity           Mult            ....    1
 Number of Electrons    NEL             ....   50
 Basis Dimension        Dim             ....  308

ORBITAL ENERGIES
----------------

  NO   OCC          E(Eh)            E(eV)
   0   2.0000     -79.928356     -2174.9611
   1   2.0000     -11.226331      -305.4840
   2   2.0000     -11.219958      -305.3106
   3   2.0000     -11.218914      -305.2822
   4   2.0000     -11.218905      -305.2819
   5   2.0000      -7.468113      -203.2177
   6   2.0000      -5.361858      -145.9036
   7   2.0000      -5.361832      -145.9029
   8   2.0000      -5.360746      -145.8733
   9   2.0000      -1.037817       -28.2404
  10   2.0000      -0.975697       -26.5501
  11   2.0000      -0.929605       -25.2958
  12   2.0000      -0.854888       -23.2627
  13   2.0000      -0.703766       -19.1505
  14   2.0000      -0.611024       -16.6268
  15   2.0000      -0.597367       -16.2552
  16   2.0000      -0.575646       -15.6641
  17   2.0000      -0.553293       -15.0559
  18   2.0000      -0.544000       -14.8030
  19   2.0000      -0.541274       -14.7288
  20   2.0000      -0.522713       -14.2237
  21   2.0000      -0.496526       -13.5112
  22   2.0000      -0.445507       -12.1229
  23   2.0000      -0.429271       -11.6810
  24   2.0000      -0.324703        -8.8356
  25   0.0000       0.132269         3.5992
  26   0.0000       0.153218         4.1693
  27   0.0000       0.159564         4.3420
  28   0.0000       0.173116         4.7107
  29   0.0000       0.197950         5.3865

MULLIKEN ATOMIC CHARGES
-----------------------
   0 C :   -0.370932
   1 P :    0.147446
   2 C :   -0.370929
   3 C :   -0.254993
   4 C :   -0.302756
   5 H :    0.107483
   6 H :    0.107483
   7 H :    0.114796
   8 H :    0.096725
   9 H :    0.096729
  10 H :    0.112230
  11 H :    0.105387
  12 H :    0.096858
  13 H :    0.112227
  14 H :    0.096856
  15 H :    0.105390
Sum of atomic charges:   -0.0000000

LOEWDIN ATOMIC CHARGES
----------------------
   0 C :   -0.025448
   1 P :    0.482446
   2 C :   -0.025447
   3 C :   -0.080923
   4 C :    0.085873
   5 H :   -0.038444
   6 H :   -0.038444
   7 H :   -0.028253
   8 H :   -0.032289
   9 H :   -0.032290
  10 H :   -0.040727
  11 H :   -0.041044
  12 H :   -0.051618
  13 H :   -0.040730
  14 H :   -0.051616
  15 H :   -0.041047

  Mayer bond orders larger than 0.1
B(  0-C ,  1-P ) :   0.9820 B(  0-C , 10-H ) :   0.9730 B(  0-C , 11-H ) :   0.9723
B(  0-C , 12-H ) :   0.9678 B(  1-P ,  2-C ) :   0.9820 B(  1-P ,  3-C ) :   0.9912
B(  2-C , 13-H ) :   0.9730 B(  2-C , 14-H ) :   0.9678 B(  2-C , 15-H ) :   0.9723
B(  3-C ,  4-C ) :   0.9338 B(  3-C ,  5-H ) :   0.9754 B(  3-C ,  6-H ) :   0.9754
B(  4-C ,  7-H ) :   0.9814 B(  4-C ,  8-H ) :   0.9801 B(  4-C ,  9-H ) :   0.9801

E(0)                                       ...   -498.688614568
E(0)                                       ...   -498.688614568
E(CORR)(strong-pairs)                      ...     -0.937524749
E(CORR)(weak-pairs)                        ...     -0.000673050
E(CORR)(corrected)                         ...     -0.938197799
E(TOT)                                     ...   -499.626812367
E(CCSD(T))                                 ...   -499.663800901
FINAL SINGLE POINT ENERGY      -499.663800901042

DIPOLE MOMENT
-------------
                                X             Y             Z
Electronic contribution:      3.48153      -0.00003      -4.90795
Nuclear contribution   :     -3.76930       0.00003       5.35948
                        -----------------------------------------
Total Dipole Moment    :     -0.28777      -0.00000       0.45152
                        -----------------------------------------
Magnitude (a.u.)       :      0.53543
Magnitude (Debye)      :      1.36096

Rotational constants in cm-1:     0.149764     0.095526     0.081572
Rotational constants in MHz :  4489.808358  2863.788674  2445.455966

                             ****ORCA TERMINATED NORMALLY****
TOTAL RUN TIME: 0 days 0 hours 4 minutes 46 seconds 416 msec
