                         Program Version 4.1.x  -  STABLE  -
|  1> ! RHF DLPNO-CCSD(T) cc-pVTZ RIJK cc-pVTZ/JK cc-pVTZ/C
|  2> ! KDIIS SOSCF TightSCF TightPNO
|  3>
|  4> %pal nprocs 8 end
|  5>
|  6> %maxcore 8000
|  7>
|  8> %scf maxiter 300
|  9>      shift shift 0.2 erroff 0.1 end
| 10> end
| 11>
| 12> * xyzfile 1 1 EtdiMeNH_g.xyz
| 13>
| 14>
| 15>                          ****END OF INPUT****

CARTESIAN COORDINATES (ANGSTROEM)
---------------------------------
  C     -1.803420   -0.000010   -0.513620
  C     -0.921370    0.000000    0.725680
  N      0.583150   -0.000000    0.432590
  C      1.051630    1.246380   -0.272680
  C      1.051650   -1.246370   -0.272670
  H     -2.844170   -0.000020   -0.177200
  H     -1.666300    0.891640   -1.130080
  H     -1.666280   -0.891670   -1.130060
  H     -1.098030    0.885810    1.341210
  H     -1.098020   -0.885780    1.341240
  H      2.141300   -1.234690   -0.313820
  H      0.706960   -2.118690    0.283600
  H      0.644050   -1.257210   -1.282390
  H      1.035250    0.000010    1.351800
  H      0.706910    2.118690    0.283580
  H      0.644040    1.257180   -1.282400
  H      2.141280    1.234730   -0.313800

 Total Charge           Charge          ....    1
 Multiplicity           Mult            ....    1
 Number of Electrons    NEL             ....   42
 Basis Dimension        Dim             ....  318

ORBITAL ENERGIES
----------------

  NO   OCC          E(Eh)            E(eV)
   0   2.0000     -15.869311      -431.8259
   1   2.0000     -11.463364      -311.9340
   2   2.0000     -11.457414      -311.7721
   3   2.0000     -11.457400      -311.7717
   4   2.0000     -11.389058      -309.9120
   5   2.0000      -1.495353       -40.6906
   6   2.0000      -1.213798       -33.0291
   7   2.0000      -1.170997       -31.8645
   8   2.0000      -1.114945       -30.3392
   9   2.0000      -1.012850       -27.5610
  10   2.0000      -0.925412       -25.1817
  11   2.0000      -0.855859       -23.2891
  12   2.0000      -0.848239       -23.0818
  13   2.0000      -0.783545       -21.3213
  14   2.0000      -0.754991       -20.5444
  15   2.0000      -0.748020       -20.3547
  16   2.0000      -0.738687       -20.1007
  17   2.0000      -0.730724       -19.8840
  18   2.0000      -0.701915       -19.1001
  19   2.0000      -0.688168       -18.7260
  20   2.0000      -0.676945       -18.4206
  21   0.0000      -0.046499        -1.2653
  22   0.0000      -0.005778        -0.1572
  23   0.0000       0.009001         0.2449
  24   0.0000       0.016454         0.4477
  25   0.0000       0.035981         0.9791

MULLIKEN ATOMIC CHARGES
-----------------------
   0 C :   -0.294022
   1 C :   -0.133296
   2 N :    0.020467
   3 C :   -0.208404
   4 C :   -0.208407
   5 H :    0.155820
   6 H :    0.124122
   7 H :    0.124120
   8 H :    0.163037
   9 H :    0.163042
  10 H :    0.159409
  11 H :    0.156344
  12 H :    0.149579
  13 H :    0.162858
  14 H :    0.156344
  15 H :    0.149579
  16 H :    0.159409
Sum of atomic charges:    1.0000000

LOEWDIN ATOMIC CHARGES
----------------------
   0 C :    0.129871
   1 C :    0.088993
   2 N :    0.541660
   3 C :    0.169064
   4 C :    0.169056
   5 H :    0.003648
   6 H :   -0.017572
   7 H :   -0.017573
   8 H :   -0.006952
   9 H :   -0.006957
  10 H :   -0.007442
  11 H :   -0.007388
  12 H :   -0.010257
  13 H :   -0.003061
  14 H :   -0.007389
  15 H :   -0.010259
  16 H :   -0.007443

  Mayer bond orders larger than 0.1
B(  0-C ,  1-C ) :   0.9505 B(  0-C ,  5-H ) :   0.9620 B(  0-C ,  6-H ) :   0.9712
B(  0-C ,  7-H ) :   0.9712 B(  1-C ,  2-N ) :   0.8616 B(  1-C ,  8-H ) :   0.9720
B(  1-C ,  9-H ) :   0.9720 B(  2-N ,  3-C ) :   0.8897 B(  2-N ,  4-C ) :   0.8897
B(  2-N , 13-H ) :   0.9707 B(  3-C , 14-H ) :   0.9663 B(  3-C , 15-H ) :   0.9644
B(  3-C , 16-H ) :   0.9681 B(  4-C , 10-H ) :   0.9681 B(  4-C , 11-H ) :   0.9663
B(  4-C , 12-H ) :   0.9644

E(0)                                       ...   -212.766788677
E(0)                                       ...   -212.766788677
E(CORR)(strong-pairs)                      ...     -0.978664219
E(CORR)(weak-pairs)                        ...     -0.000813415
E(CORR)(corrected)                         ...     -0.979477634
E(TOT)                                     ...   -213.746266312
E(CCSD(T))                                 ...   -213.781818426
FINAL SINGLE POINT ENERGY      -213.781818425873

DIPOLE MOMENT
-------------
                                X             Y             Z
Electronic contribution:      1.05267       0.00001       1.54036
Nuclear contribution   :     -0.38075       0.00000      -1.11725
                        -----------------------------------------
Total Dipole Moment    :      0.67192       0.00001       0.42311
                        -----------------------------------------
Magnitude (a.u.)       :      0.79404
Magnitude (Debye)      :      2.01830

Rotational constants in cm-1:     0.206973     0.125265     0.102323
Rotational constants in MHz :  6204.901634  3755.339391  3067.560013

                             ****ORCA TERMINATED NORMALLY****
TOTAL RUN TIME: 0 days 0 hours 3 minutes 44 seconds 430 msec
