                         Program Version 4.1.x  -  STABLE  -
|  1> ! RHF DLPNO-CCSD(T) cc-pVTZ RIJK cc-pVTZ/JK cc-pVTZ/C
|  2> ! KDIIS SOSCF TightSCF TightPNO
|  3>
|  4> %pal nprocs 8 end
|  5>
|  6> %maxcore 8000
|  7>
|  8> %scf maxiter 300
|  9>      shift shift 0.2 erroff 0.1 end
| 10> end
| 11>
| 12> * xyzfile 1 1 EtdiMeNH_a.xyz
| 13>
| 14>
| 15>                          ****END OF INPUT****

CARTESIAN COORDINATES (ANGSTROEM)
---------------------------------
  C      2.078210   -0.020720   -0.136360
  C      0.773230   -0.649780    0.329300
  N     -0.463000   -0.002080   -0.290810
  C     -0.653180    1.431310    0.130590
  C     -1.701760   -0.816480   -0.023080
  H      2.903460   -0.613440    0.267990
  H      2.174570   -0.037510   -1.227520
  H      2.211830    1.003050    0.220290
  H      0.725120   -1.704070    0.046780
  H      0.639480   -0.577150    1.411830
  H     -2.550560   -0.346450   -0.520530
  H     -1.553300   -1.825840   -0.407470
  H     -1.869290   -0.846330    1.054280
  H     -0.314250   -0.000550   -1.305480
  H      0.222800    2.012310   -0.152260
  H     -0.789920    1.456060    1.212560
  H     -1.537980    1.828580   -0.367480

 Total Charge           Charge          ....    1
 Multiplicity           Mult            ....    1
 Number of Electrons    NEL             ....   42
 Basis Dimension        Dim             ....  318

ORBITAL ENERGIES
----------------

  NO   OCC          E(Eh)            E(eV)
   0   2.0000     -15.869372      -431.8276
   1   2.0000     -11.462609      -311.9134
   2   2.0000     -11.457976      -311.7874
   3   2.0000     -11.457220      -311.7668
   4   2.0000     -11.390086      -309.9400
   5   2.0000      -1.496565       -40.7236
   6   2.0000      -1.215613       -33.0785
   7   2.0000      -1.171220       -31.8705
   8   2.0000      -1.100899       -29.9570
   9   2.0000      -1.038647       -28.2630
  10   2.0000      -0.911821       -24.8119
  11   2.0000      -0.858790       -23.3689
  12   2.0000      -0.838773       -22.8242
  13   2.0000      -0.788124       -21.4459
  14   2.0000      -0.761542       -20.7226
  15   2.0000      -0.745527       -20.2868
  16   2.0000      -0.738174       -20.0867
  17   2.0000      -0.732205       -19.9243
  18   2.0000      -0.698631       -19.0107
  19   2.0000      -0.691067       -18.8049
  20   2.0000      -0.677901       -18.4466
  21   0.0000      -0.042670        -1.1611
  22   0.0000      -0.003849        -0.1047
  23   0.0000       0.007391         0.2011
  24   0.0000       0.013503         0.3674
  25   0.0000       0.029390         0.7997

MULLIKEN ATOMIC CHARGES
-----------------------
   0 C :   -0.285131
   1 C :   -0.118156
   2 N :    0.020034
   3 C :   -0.204476
   4 C :   -0.194905
   5 H :    0.152368
   6 H :    0.118953
   7 H :    0.122616
   8 H :    0.156114
   9 H :    0.153246
  10 H :    0.154530
  11 H :    0.153989
  12 H :    0.150484
  13 H :    0.155753
  14 H :    0.158176
  15 H :    0.149835
  16 H :    0.156570
Sum of atomic charges:    1.0000000

LOEWDIN ATOMIC CHARGES
----------------------
   0 C :    0.128604
   1 C :    0.086356
   2 N :    0.541864
   3 C :    0.170103
   4 C :    0.169602
   5 H :    0.003040
   6 H :   -0.015743
   7 H :   -0.018211
   8 H :   -0.006306
   9 H :   -0.006567
  10 H :   -0.007878
  11 H :   -0.008277
  12 H :   -0.006222
  13 H :   -0.005276
  14 H :   -0.010820
  15 H :   -0.006718
  16 H :   -0.007551

  Mayer bond orders larger than 0.1
B(  0-C ,  1-C ) :   0.9595 B(  0-C ,  5-H ) :   0.9625 B(  0-C ,  6-H ) :   0.9713
B(  0-C ,  7-H ) :   0.9722 B(  1-C ,  2-N ) :   0.8629 B(  1-C ,  8-H ) :   0.9730
B(  1-C ,  9-H ) :   0.9666 B(  2-N ,  3-C ) :   0.8892 B(  2-N ,  4-C ) :   0.8925
B(  2-N , 13-H ) :   0.9654 B(  3-C , 14-H ) :   0.9674 B(  3-C , 15-H ) :   0.9636
B(  3-C , 16-H ) :   0.9686 B(  4-C , 10-H ) :   0.9681 B(  4-C , 11-H ) :   0.9685
B(  4-C , 12-H ) :   0.9642

E(0)                                       ...   -212.768524113
E(0)                                       ...   -212.768524113
E(CORR)(strong-pairs)                      ...     -0.978317543
E(CORR)(weak-pairs)                        ...     -0.000811198
E(CORR)(corrected)                         ...     -0.979128741
E(TOT)                                     ...   -213.747652854
E(CCSD(T))                                 ...   -213.783161462
FINAL SINGLE POINT ENERGY      -213.783161462262

DIPOLE MOMENT
-------------
                                X             Y             Z
Electronic contribution:     -0.85853      -0.37724      -0.50877
Nuclear contribution   :      0.28237       0.37971       0.25190
                        -----------------------------------------
Total Dipole Moment    :     -0.57616       0.00247      -0.25687
                        -----------------------------------------
Magnitude (a.u.)       :      0.63083
Magnitude (Debye)      :      1.60345

Rotational constants in cm-1:     0.249278     0.113692     0.087382
Rotational constants in MHz :  7473.166828  3408.402564  2619.650144

                             ****ORCA TERMINATED NORMALLY****
TOTAL RUN TIME: 0 days 0 hours 3 minutes 47 seconds 186 msec
