                         Program Version 4.1.x  -  STABLE  -
|  1> ! RHF DLPNO-CCSD(T) cc-pVTZ RIJK cc-pVTZ/JK cc-pVTZ/C
|  2> ! KDIIS SOSCF TightSCF TightPNO
|  3>
|  4> %pal nprocs 8 end
|  5>
|  6> %maxcore 8000
|  7>
|  8> %scf maxiter 300
|  9>      shift shift 0.2 erroff 0.1 end
| 10> end
| 11>
| 12> * xyzfile 0 1 ethane_ecl.xyz
| 13>
| 14>
| 15>                          ****END OF INPUT****

CARTESIAN COORDINATES (ANGSTROEM)
---------------------------------
  C      0.024900    0.151560   -0.751760
  C     -0.024900   -0.151560    0.751760
  H      0.322130    1.208420   -0.944820
  H      0.759800   -0.502900   -1.275370
  H     -0.967610   -0.009290   -1.233050
  H     -1.043820   -0.473510    1.069100
  H      0.683610   -0.967000    1.026810
  H      0.245870    0.744280    1.357330

 Total Charge           Charge          ....    0
 Multiplicity           Mult            ....    1
 Number of Electrons    NEL             ....   18
 Basis Dimension        Dim             ....  144

ORBITAL ENERGIES
----------------

  NO   OCC          E(Eh)            E(eV)
   0   2.0000     -11.220518      -305.3258
   1   2.0000     -11.219941      -305.3101
   2   2.0000      -1.009720       -27.4759
   3   2.0000      -0.832283       -22.6476
   4   2.0000      -0.590307       -16.0631
   5   2.0000      -0.590304       -16.0630
   6   2.0000      -0.508523       -13.8376
   7   2.0000      -0.477915       -13.0047
   8   2.0000      -0.477912       -13.0047
   9   0.0000       0.141656         3.8547
  10   0.0000       0.176816         4.8114
  11   0.0000       0.195435         5.3181
  12   0.0000       0.195435         5.3181
  13   0.0000       0.266600         7.2546

MULLIKEN ATOMIC CHARGES
-----------------------
   0 C :   -0.257074
   1 C :   -0.257075
   2 H :    0.085691
   3 H :    0.085696
   4 H :    0.085687
   5 H :    0.085695
   6 H :    0.085687
   7 H :    0.085693
Sum of atomic charges:   -0.0000000

LOEWDIN ATOMIC CHARGES
----------------------
   0 C :    0.079008
   1 C :    0.079010
   2 H :   -0.026337
   3 H :   -0.026338
   4 H :   -0.026333
   5 H :   -0.026339
   6 H :   -0.026334
   7 H :   -0.026338

  Mayer bond orders larger than 0.1
B(  0-C ,  1-C ) :   0.9178 B(  0-C ,  2-H ) :   0.9870 B(  0-C ,  3-H ) :   0.9870
B(  0-C ,  4-H ) :   0.9870 B(  1-C ,  5-H ) :   0.9870 B(  1-C ,  6-H ) :   0.9870
B(  1-C ,  7-H ) :   0.9870

E(0)                                       ...    -79.251353737
E(0)                                       ...    -79.251353737
E(CORR)(strong-pairs)                      ...     -0.402748712
E(CORR)(weak-pairs)                        ...     -0.000167396
E(CORR)(corrected)                         ...     -0.402916107
E(TOT)                                     ...    -79.654269844
E(CCSD(T))                                 ...    -79.667693607
FINAL SINGLE POINT ENERGY       -79.667693607276

DIPOLE MOMENT
-------------
                                X             Y             Z
Electronic contribution:      0.00001       0.00000       0.00000
Nuclear contribution   :     -0.00001       0.00000      -0.00000
                        -----------------------------------------
Total Dipole Moment    :     -0.00000       0.00000       0.00000
                        -----------------------------------------
Magnitude (a.u.)       :      0.00000
Magnitude (Debye)      :      0.00001

Rotational constants in cm-1:     2.589338     0.654773     0.654772
Rotational constants in MHz : 77626.414182 19629.605950 19629.576974

                             ****ORCA TERMINATED NORMALLY****
TOTAL RUN TIME: 0 days 0 hours 0 minutes 43 seconds 316 msec
