                         Program Version 4.1.x  -  STABLE  -
|  1> ! RHF DLPNO-CCSD(T) cc-pVTZ RIJK cc-pVTZ/JK cc-pVTZ/C
|  2> ! KDIIS SOSCF TightSCF TightPNO
|  3>
|  4> %pal nprocs 8 end
|  5>
|  6> %maxcore 8000
|  7>
|  8> %scf maxiter 300
|  9>      shift shift 0.2 erroff 0.1 end
| 10> end
| 11>
| 12> * xyzfile 0 1 ethanethiol_g.xyz
| 13>
| 14>
| 15>                          ****END OF INPUT****

CARTESIAN COORDINATES (ANGSTROEM)
---------------------------------
  C     -1.652080   -0.352040   -0.053740
  C     -0.504630    0.644840    0.091430
  S      1.175060   -0.099080   -0.080030
  H      1.085600   -0.936440    0.974300
  H     -0.541910    1.398000   -0.701480
  H     -0.559050    1.177410    1.045180
  H     -1.624800   -1.107370    0.738990
  H     -1.604620   -0.870870   -1.015620
  H     -2.615850    0.167700    0.012930

 Total Charge           Charge          ....    0
 Multiplicity           Mult            ....    1
 Number of Electrons    NEL             ....   34
 Basis Dimension        Dim             ....  178

ORBITAL ENERGIES
----------------

  NO   OCC          E(Eh)            E(eV)
   0   2.0000     -91.947336     -2502.0142
   1   2.0000     -11.265743      -306.5565
   2   2.0000     -11.228210      -305.5351
   3   2.0000      -8.949084      -243.5169
   4   2.0000      -6.630382      -180.4219
   5   2.0000      -6.629347      -180.3937
   6   2.0000      -6.628392      -180.3677
   7   2.0000      -1.064680       -28.9714
   8   2.0000      -0.940195       -25.5840
   9   2.0000      -0.821202       -22.3460
  10   2.0000      -0.633427       -17.2364
  11   2.0000      -0.588104       -16.0031
  12   2.0000      -0.552325       -15.0295
  13   2.0000      -0.522600       -14.2207
  14   2.0000      -0.495644       -13.4872
  15   2.0000      -0.443375       -12.0649
  16   2.0000      -0.354934        -9.6583
  17   0.0000       0.125799         3.4232
  18   0.0000       0.164009         4.4629
  19   0.0000       0.173276         4.7151
  20   0.0000       0.194129         5.2825
  21   0.0000       0.197770         5.3816

MULLIKEN ATOMIC CHARGES
-----------------------
   0 C :   -0.261208
   1 C :   -0.146105
   2 S :   -0.189563
   3 H :    0.084720
   4 H :    0.106024
   5 H :    0.114902
   6 H :    0.089739
   7 H :    0.104273
   8 H :    0.097217
Sum of atomic charges:   -0.0000000

LOEWDIN ATOMIC CHARGES
----------------------
   0 C :    0.085525
   1 C :   -0.097828
   2 S :    0.328784
   3 H :   -0.154525
   4 H :   -0.036676
   5 H :   -0.041722
   6 H :   -0.029895
   7 H :   -0.026799
   8 H :   -0.026866

  Mayer bond orders larger than 0.1
B(  0-C ,  1-C ) :   0.9474 B(  0-C ,  6-H ) :   0.9793 B(  0-C ,  7-H ) :   0.9765
B(  0-C ,  8-H ) :   0.9760 B(  1-C ,  2-S ) :   0.9861 B(  1-C ,  4-H ) :   0.9748
B(  1-C ,  5-H ) :   0.9758 B(  2-S ,  3-H ) :   1.0103

E(0)                                       ...   -476.804690393
E(0)                                       ...   -476.804690393
E(CORR)(strong-pairs)                      ...     -0.581945363
E(CORR)(weak-pairs)                        ...     -0.000291207
E(CORR)(corrected)                         ...     -0.582236570
E(TOT)                                     ...   -477.386926963
E(CCSD(T))                                 ...   -477.409526779
FINAL SINGLE POINT ENERGY      -477.409526778830

DIPOLE MOMENT
-------------
                                X             Y             Z
Electronic contribution:      5.41759       0.22657      -0.80361
Nuclear contribution   :     -6.06058      -0.17318       1.08611
                        -----------------------------------------
Total Dipole Moment    :     -0.64298       0.05339       0.28249
                        -----------------------------------------
Magnitude (a.u.)       :      0.70433
Magnitude (Debye)      :      1.79026

Rotational constants in cm-1:     0.961739     0.172127     0.158079
Rotational constants in MHz : 28832.198087  5160.248451  4739.083045

                             ****ORCA TERMINATED NORMALLY****
TOTAL RUN TIME: 0 days 0 hours 1 minutes 27 seconds 475 msec
