                         Program Version 4.1.x  -  STABLE  -
|  1> ! RHF DLPNO-CCSD(T) cc-pVTZ RIJK cc-pVTZ/JK cc-pVTZ/C
|  2> ! KDIIS SOSCF TightSCF TightPNO
|  3>
|  4> %pal nprocs 8 end
|  5>
|  6> %maxcore 8000
|  7>
|  8> %scf maxiter 300
|  9>      shift shift 0.2 erroff 0.1 end
| 10> end
| 11>
| 12> * xyzfile 0 1 ethanediamine_g_plus_g_plus_g_plus.xyz
| 13>
| 14>
| 15>                          ****END OF INPUT****

CARTESIAN COORDINATES (ANGSTROEM)
---------------------------------
  C     -0.721790    0.623650   -0.251730
  N     -1.423580   -0.586640    0.201640
  C      0.721720    0.623630    0.251770
  N      1.423570   -0.586600   -0.201630
  H     -1.239620    1.494970    0.165940
  H     -0.715270    0.730780   -1.348470
  H      1.239530    1.495010   -0.165800
  H      0.715200    0.730680    1.348510
  H     -2.429600   -0.481440    0.112210
  H     -1.155800   -1.380020   -0.375070
  H      2.429620   -0.481040   -0.113070
  H      1.156490   -1.379910    0.375480

 Total Charge           Charge          ....    0
 Multiplicity           Mult            ....    1
 Number of Electrons    NEL             ....   34
 Basis Dimension        Dim             ....  232

ORBITAL ENERGIES
----------------

  NO   OCC          E(Eh)            E(eV)
   0   2.0000     -15.532055      -422.6487
   1   2.0000     -15.532045      -422.6484
   2   2.0000     -11.242228      -305.9166
   3   2.0000     -11.241612      -305.8998
   4   2.0000      -1.186937       -32.2982
   5   2.0000      -1.143393       -31.1133
   6   2.0000      -0.951902       -25.9026
   7   2.0000      -0.798000       -21.7147
   8   2.0000      -0.678383       -18.4597
   9   2.0000      -0.654589       -17.8123
  10   2.0000      -0.600606       -16.3433
  11   2.0000      -0.593371       -16.1464
  12   2.0000      -0.534218       -14.5368
  13   2.0000      -0.505417       -13.7531
  14   2.0000      -0.486478       -13.2378
  15   2.0000      -0.400554       -10.8996
  16   2.0000      -0.374314       -10.1856
  17   0.0000       0.141612         3.8535
  18   0.0000       0.167285         4.5521
  19   0.0000       0.168994         4.5986
  20   0.0000       0.194164         5.2835
  21   0.0000       0.210450         5.7266

MULLIKEN ATOMIC CHARGES
-----------------------
   0 C :   -0.037358
   1 N :   -0.408239
   2 C :   -0.037452
   3 N :   -0.408268
   4 H :    0.081769
   5 H :    0.067306
   6 H :    0.081776
   7 H :    0.067342
   8 H :    0.144907
   9 H :    0.151633
  10 H :    0.144928
  11 H :    0.151655
Sum of atomic charges:   -0.0000000

LOEWDIN ATOMIC CHARGES
----------------------
   0 C :   -0.017746
   1 N :    0.310991
   2 C :   -0.017745
   3 N :    0.311018
   4 H :   -0.031866
   5 H :   -0.043485
   6 H :   -0.031861
   7 H :   -0.043476
   8 H :   -0.109949
   9 H :   -0.107964
  10 H :   -0.109952
  11 H :   -0.107965

  Mayer bond orders larger than 0.1
B(  0-C ,  1-N ) :   0.9742 B(  0-C ,  2-C ) :   0.9448 B(  0-C ,  4-H ) :   0.9897
B(  0-C ,  5-H ) :   0.9863 B(  1-N ,  8-H ) :   0.9909 B(  1-N ,  9-H ) :   0.9814
B(  2-C ,  3-N ) :   0.9742 B(  2-C ,  6-H ) :   0.9897 B(  2-C ,  7-H ) :   0.9863
B(  3-N , 10-H ) :   0.9909 B(  3-N , 11-H ) :   0.9814

E(0)                                       ...   -189.347887846
E(0)                                       ...   -189.347887846
E(CORR)(strong-pairs)                      ...     -0.825318698
E(CORR)(weak-pairs)                        ...     -0.000550007
E(CORR)(corrected)                         ...     -0.825868706
E(TOT)                                     ...   -190.173756552
E(CCSD(T))                                 ...   -190.204115374
FINAL SINGLE POINT ENERGY      -190.204115374461

DIPOLE MOMENT
-------------
                                X             Y             Z
Electronic contribution:     -0.00012      -0.63318       0.00009
Nuclear contribution   :      0.00057       0.76725      -0.00030
                        -----------------------------------------
Total Dipole Moment    :      0.00045       0.13407      -0.00020
                        -----------------------------------------
Magnitude (a.u.)       :      0.13407
Magnitude (Debye)      :      0.34078

Rotational constants in cm-1:     0.474674     0.178006     0.144189
Rotational constants in MHz : 14230.371457  5336.495514  4322.670115

                             ****ORCA TERMINATED NORMALLY****
TOTAL RUN TIME: 0 days 0 hours 2 minutes 9 seconds 456 msec
