                         Program Version 4.1.x  -  STABLE  -
|  1> ! RHF DLPNO-CCSD(T) cc-pVTZ RIJK cc-pVTZ/JK cc-pVTZ/C
|  2> ! KDIIS SOSCF TightSCF TightPNO
|  3>
|  4> %pal nprocs 8 end
|  5>
|  6> %maxcore 8000
|  7>
|  8> %scf maxiter 300
|  9>      shift shift 0.2 erroff 0.1 end
| 10> end
| 11>
| 12> * xyzfile 0 1 ethanediamine_tTt.xyz
| 13>
| 14>
| 15>                          ****END OF INPUT****

CARTESIAN COORDINATES (ANGSTROEM)
---------------------------------
  C      0.577040    0.494080    0.090750
  N      1.864780   -0.182070   -0.111570
  C     -0.577040   -0.494100   -0.090760
  N     -1.864790    0.182070    0.111610
  H      0.494410    1.282750   -0.668340
  H      0.468340    0.980470    1.072690
  H     -0.468370   -0.980480   -1.072720
  H     -0.494420   -1.282790    0.668310
  H     -2.058720    0.828380   -0.649370
  H     -2.629120   -0.486010    0.139320
  H      2.629090    0.486010   -0.139640
  H      2.058860   -0.828170    0.649550

 Total Charge           Charge          ....    0
 Multiplicity           Mult            ....    1
 Number of Electrons    NEL             ....   34
 Basis Dimension        Dim             ....  232

ORBITAL ENERGIES
----------------

  NO   OCC          E(Eh)            E(eV)
   0   2.0000     -15.533983      -422.7012
   1   2.0000     -15.533981      -422.7011
   2   2.0000     -11.243006      -305.9378
   3   2.0000     -11.242392      -305.9210
   4   2.0000      -1.183614       -32.2078
   5   2.0000      -1.151765       -31.3411
   6   2.0000      -0.946016       -25.7424
   7   2.0000      -0.809005       -22.0141
   8   2.0000      -0.660999       -17.9867
   9   2.0000      -0.651000       -17.7146
  10   2.0000      -0.638387       -17.3714
  11   2.0000      -0.557117       -15.1599
  12   2.0000      -0.553661       -15.0659
  13   2.0000      -0.517584       -14.0842
  14   2.0000      -0.477913       -13.0047
  15   2.0000      -0.388886       -10.5821
  16   2.0000      -0.385001       -10.4764
  17   0.0000       0.143897         3.9156
  18   0.0000       0.147930         4.0254
  19   0.0000       0.170687         4.6446
  20   0.0000       0.205020         5.5789
  21   0.0000       0.207715         5.6522

MULLIKEN ATOMIC CHARGES
-----------------------
   0 C :   -0.044464
   1 N :   -0.388395
   2 C :   -0.044447
   3 N :   -0.388388
   4 H :    0.073928
   5 H :    0.074951
   6 H :    0.074942
   7 H :    0.073930
   8 H :    0.140184
   9 H :    0.143779
  10 H :    0.143787
  11 H :    0.140192
Sum of atomic charges:    0.0000000

LOEWDIN ATOMIC CHARGES
----------------------
   0 C :   -0.019635
   1 N :    0.314447
   2 C :   -0.019624
   3 N :    0.314431
   4 H :   -0.033935
   5 H :   -0.044037
   6 H :   -0.044035
   7 H :   -0.033937
   8 H :   -0.108020
   9 H :   -0.108818
  10 H :   -0.108821
  11 H :   -0.108015

  Mayer bond orders larger than 0.1
B(  0-C ,  1-N ) :   0.9756 B(  0-C ,  2-C ) :   0.9607 B(  0-C ,  4-H ) :   0.9822
B(  0-C ,  5-H ) :   0.9804 B(  1-N , 10-H ) :   0.9889 B(  1-N , 11-H ) :   0.9888
B(  2-C ,  3-N ) :   0.9756 B(  2-C ,  6-H ) :   0.9804 B(  2-C ,  7-H ) :   0.9822
B(  3-N ,  8-H ) :   0.9888 B(  3-N ,  9-H ) :   0.9889

E(0)                                       ...   -189.347334621
E(0)                                       ...   -189.347334621
E(CORR)(strong-pairs)                      ...     -0.824294150
E(CORR)(weak-pairs)                        ...     -0.000544056
E(CORR)(corrected)                         ...     -0.824838205
E(TOT)                                     ...   -190.172172827
E(CCSD(T))                                 ...   -190.202375490
FINAL SINGLE POINT ENERGY      -190.202375489734

DIPOLE MOMENT
-------------
                                X             Y             Z
Electronic contribution:      0.00004      -0.00005       0.00010
Nuclear contribution   :      0.00007       0.00016      -0.00022
                        -----------------------------------------
Total Dipole Moment    :      0.00011       0.00011      -0.00012
                        -----------------------------------------
Magnitude (a.u.)       :      0.00020
Magnitude (Debye)      :      0.00050

Rotational constants in cm-1:     0.910867     0.126336     0.118012
Rotational constants in MHz : 27307.115490  3787.456740  3537.915823

                             ****ORCA TERMINATED NORMALLY****
TOTAL RUN TIME: 0 days 0 hours 2 minutes 11 seconds 518 msec
