                         Program Version 4.1.x  -  STABLE  -
|  1> ! RHF DLPNO-CCSD(T) cc-pVTZ RIJK cc-pVTZ/JK cc-pVTZ/C
|  2> ! KDIIS SOSCF TightSCF TightPNO
|  3>
|  4> %pal nprocs 8 end
|  5>
|  6> %maxcore 8000
|  7>
|  8> %scf maxiter 300
|  9>      shift shift 0.2 erroff 0.1 end
| 10> end
| 11>
| 12> * xyzfile 0 1 ethanethiol_ecl.xyz
| 13>
| 14>
| 15>                          ****END OF INPUT****

CARTESIAN COORDINATES (ANGSTROEM)
---------------------------------
  C     -0.564740    0.691230    0.079110
  S      1.167600   -0.080390   -0.077290
  H      1.632490   -0.987430    0.800100
  H     -0.640750    1.222050    1.056360
  H     -0.696630    1.449810   -0.726940
  C     -1.632640   -0.408650   -0.031500
  H     -1.210490   -1.428850   -0.179130
  H     -2.261640   -0.449300    0.887860
  H     -2.320330   -0.215550   -0.887270

 Total Charge           Charge          ....    0
 Multiplicity           Mult            ....    1
 Number of Electrons    NEL             ....   34
 Basis Dimension        Dim             ....  178

ORBITAL ENERGIES
----------------

  NO   OCC          E(Eh)            E(eV)
   0   2.0000     -91.941286     -2501.8496
   1   2.0000     -11.287086      -307.1372
   2   2.0000     -11.234771      -305.7137
   3   2.0000      -8.943169      -243.3560
   4   2.0000      -6.624592      -180.2643
   5   2.0000      -6.623716      -180.2405
   6   2.0000      -6.622831      -180.2164
   7   2.0000      -1.054040       -28.6819
   8   2.0000      -0.930350       -25.3161
   9   2.0000      -0.826185       -22.4816
  10   2.0000      -0.626652       -17.0521
  11   2.0000      -0.595539       -16.2055
  12   2.0000      -0.550434       -14.9781
  13   2.0000      -0.519985       -14.1495
  14   2.0000      -0.503811       -13.7094
  15   2.0000      -0.403348       -10.9757
  16   2.0000      -0.350706        -9.5432
  17   0.0000       0.126820         3.4510
  18   0.0000       0.136720         3.7203
  19   0.0000       0.172964         4.7066
  20   0.0000       0.177631         4.8336
  21   0.0000       0.190235         5.1766

MULLIKEN ATOMIC CHARGES
-----------------------
   0 C :   -0.117444
   1 S :   -0.256876
   2 H :    0.106873
   3 H :    0.115467
   4 H :    0.123514
   5 C :   -0.253331
   6 H :    0.107213
   7 H :    0.087450
   8 H :    0.087133
Sum of atomic charges:    0.0000000

LOEWDIN ATOMIC CHARGES
----------------------
   0 C :   -0.066138
   1 S :    0.286372
   2 H :   -0.163464
   3 H :   -0.032919
   4 H :   -0.018276
   5 C :    0.066803
   6 H :   -0.024087
   7 H :   -0.024737
   8 H :   -0.023555

  Mayer bond orders larger than 0.1
B(  0-C ,  1-S ) :   0.9594 B(  0-C ,  3-H ) :   0.9818 B(  0-C ,  4-H ) :   0.9750
B(  0-C ,  5-C ) :   0.9150 B(  1-S ,  2-H ) :   0.9944 B(  5-C ,  6-H ) :   0.9776
B(  5-C ,  7-H ) :   0.9832 B(  5-C ,  8-H ) :   0.9825

E(0)                                       ...   -476.771637667
E(0)                                       ...   -476.771637667
E(CORR)(strong-pairs)                      ...     -0.583858321
E(CORR)(weak-pairs)                        ...     -0.000283130
E(CORR)(corrected)                         ...     -0.584141451
E(TOT)                                     ...   -477.355779117
E(CCSD(T))                                 ...   -477.378954284
FINAL SINGLE POINT ENERGY      -477.378954284142

DIPOLE MOMENT
-------------
                                X             Y             Z
Electronic contribution:      4.98984       0.41980      -0.61947
Nuclear contribution   :     -5.68696      -0.41807       0.97983
                        -----------------------------------------
Total Dipole Moment    :     -0.69712       0.00173       0.36035
                        -----------------------------------------
Magnitude (a.u.)       :      0.78475
Magnitude (Debye)      :      1.99468

Rotational constants in cm-1:     0.885726     0.170487     0.153778
Rotational constants in MHz : 26553.385608  5111.082105  4610.139213

                             ****ORCA TERMINATED NORMALLY****
TOTAL RUN TIME: 0 days 0 hours 1 minutes 20 seconds 197 msec
