                         Program Version 4.1.x  -  STABLE  -
|  1> ! RHF DLPNO-CCSD(T) cc-pVTZ RIJK cc-pVTZ/JK cc-pVTZ/C
|  2> ! KDIIS SOSCF TightSCF TightPNO
|  3>
|  4> %pal nprocs 8 end
|  5>
|  6> %maxcore 8000
|  7>
|  8> %scf maxiter 300
|  9>      shift shift 0.2 erroff 0.1 end
| 10> end
| 11>
| 12> * xyzfile 0 1 ethanol_a.xyz
| 13>
| 14>
| 15>                          ****END OF INPUT****

CARTESIAN COORDINATES (ANGSTROEM)
---------------------------------
  C     -1.225110   -0.223750    0.000010
  C      0.081930    0.550400   -0.000010
  O      1.155680   -0.396400   -0.000020
  H      1.997020    0.076890    0.000160
  H      0.139930    1.195790   -0.889470
  H      0.139940    1.195810    0.889440
  H     -1.293330   -0.861280    0.887020
  H     -1.293340   -0.861320   -0.886980
  H     -2.076600    0.465400    0.000000

 Total Charge           Charge          ....    0
 Multiplicity           Mult            ....    1
 Number of Electrons    NEL             ....   26
 Basis Dimension        Dim             ....  174

ORBITAL ENERGIES
----------------

  NO   OCC          E(Eh)            E(eV)
   0   2.0000     -20.549288      -559.1745
   1   2.0000     -11.275574      -306.8240
   2   2.0000     -11.213521      -305.1354
   3   2.0000      -1.348745       -36.7012
   4   2.0000      -1.008887       -27.4532
   5   2.0000      -0.831741       -22.6328
   6   2.0000      -0.692707       -18.8495
   7   2.0000      -0.640834       -17.4380
   8   2.0000      -0.566721       -15.4213
   9   2.0000      -0.530763       -14.4428
  10   2.0000      -0.523033       -14.2324
  11   2.0000      -0.485808       -13.2195
  12   2.0000      -0.440095       -11.9756
  13   0.0000       0.138577         3.7709
  14   0.0000       0.168223         4.5776
  15   0.0000       0.198013         5.3882
  16   0.0000       0.200424         5.4538
  17   0.0000       0.222266         6.0482

MULLIKEN ATOMIC CHARGES
-----------------------
   0 C :   -0.264767
   1 C :    0.086467
   2 O :   -0.416159
   3 H :    0.217805
   4 H :    0.052929
   5 H :    0.052925
   6 H :    0.095886
   7 H :    0.095886
   8 H :    0.079028
Sum of atomic charges:    0.0000000

LOEWDIN ATOMIC CHARGES
----------------------
   0 C :    0.102953
   1 C :   -0.047248
   2 O :    0.304573
   3 H :   -0.193866
   4 H :   -0.042383
   5 H :   -0.042381
   6 H :   -0.026659
   7 H :   -0.026654
   8 H :   -0.028335

  Mayer bond orders larger than 0.1
B(  0-C ,  1-C ) :   0.9659 B(  0-C ,  6-H ) :   0.9786 B(  0-C ,  7-H ) :   0.9786
B(  0-C ,  8-H ) :   0.9777 B(  1-C ,  2-O ) :   0.9918 B(  1-C ,  4-H ) :   0.9760
B(  1-C ,  5-H ) :   0.9760 B(  2-O ,  3-H ) :   0.9959

E(0)                                       ...   -154.141834761
E(0)                                       ...   -154.141834761
E(CORR)(strong-pairs)                      ...     -0.630814916
E(CORR)(weak-pairs)                        ...     -0.000333151
E(CORR)(corrected)                         ...     -0.631148067
E(TOT)                                     ...   -154.772982828
E(CCSD(T))                                 ...   -154.794563454
FINAL SINGLE POINT ENERGY      -154.794563454337

DIPOLE MOMENT
-------------
                                X             Y             Z
Electronic contribution:      2.56521      -0.61715      -0.00005
Nuclear contribution   :     -2.51008       1.27726       0.00018
                        -----------------------------------------
Total Dipole Moment    :      0.05513       0.66011       0.00012
                        -----------------------------------------
Magnitude (a.u.)       :      0.66240
Magnitude (Debye)      :      1.68370

Rotational constants in cm-1:     1.167715     0.309967     0.269897
Rotational constants in MHz : 35007.224030  9292.577865  8091.298308

                             ****ORCA TERMINATED NORMALLY****
TOTAL RUN TIME: 0 days 0 hours 1 minutes 5 seconds 785 msec
