                         Program Version 4.1.x  -  STABLE  -
|  1> ! RHF DLPNO-CCSD(T) cc-pVTZ RIJK cc-pVTZ/JK cc-pVTZ/C
|  2> ! KDIIS SOSCF TightSCF TightPNO
|  3>
|  4> %pal nprocs 8 end
|  5>
|  6> %maxcore 8000
|  7>
|  8> %scf maxiter 300
|  9>      shift shift 0.2 erroff 0.1 end
| 10> end
| 11>
| 12> * xyzfile 1 1 ethanediamineH_Tg.xyz
| 13>
| 14>
| 15>                          ****END OF INPUT****

CARTESIAN COORDINATES (ANGSTROEM)
---------------------------------
  C      0.470770   -0.534920   -0.056350
  N      1.854740    0.118650    0.018140
  C     -0.646780    0.514500    0.028270
  N     -1.907590   -0.200380   -0.032990
  H      0.422530   -1.244990    0.771750
  H      0.427600   -1.082090   -0.999100
  H     -0.519390    1.124810    0.937840
  H     -0.572140    1.194240   -0.828650
  H     -2.301510   -0.407550    0.877950
  H      2.604190   -0.580170   -0.023190
  H     -2.606900    0.269540   -0.595080
  H      1.971700    0.647710    0.889550
  H      1.999980    0.773080   -0.758640

 Total Charge           Charge          ....    1
 Multiplicity           Mult            ....    1
 Number of Electrons    NEL             ....   34
 Basis Dimension        Dim             ....  246

ORBITAL ENERGIES
----------------

  NO   OCC          E(Eh)            E(eV)
   0   2.0000     -15.893034      -432.4714
   1   2.0000     -15.689647      -426.9370
   2   2.0000     -11.474846      -312.2464
   3   2.0000     -11.435399      -311.1730
   4   2.0000      -1.504742       -40.9461
   5   2.0000      -1.338890       -36.4330
   6   2.0000      -1.175919       -31.9984
   7   2.0000      -1.030907       -28.0524
   8   2.0000      -0.967476       -26.3264
   9   2.0000      -0.950679       -25.8693
  10   2.0000      -0.854156       -23.2428
  11   2.0000      -0.837040       -22.7770
  12   2.0000      -0.766849       -20.8670
  13   2.0000      -0.750155       -20.4127
  14   2.0000      -0.721481       -19.6325
  15   2.0000      -0.674801       -18.3623
  16   2.0000      -0.546930       -14.8827
  17   0.0000      -0.076702        -2.0872
  18   0.0000      -0.013025        -0.3544
  19   0.0000      -0.012537        -0.3411
  20   0.0000      -0.002031        -0.0553
  21   0.0000       0.037537         1.0214

MULLIKEN ATOMIC CHARGES
-----------------------
   0 C :   -0.089545
   1 N :    0.007762
   2 C :   -0.079373
   3 N :   -0.387438
   4 H :    0.158285
   5 H :    0.165369
   6 H :    0.110528
   7 H :    0.122780
   8 H :    0.177144
   9 H :    0.215548
  10 H :    0.187732
  11 H :    0.205150
  12 H :    0.206058
Sum of atomic charges:    1.0000000

LOEWDIN ATOMIC CHARGES
----------------------
   0 C :    0.109145
   1 N :    0.714288
   2 C :   -0.016174
   3 N :    0.355588
   4 H :   -0.007177
   5 H :   -0.004891
   6 H :   -0.029109
   7 H :   -0.017858
   8 H :   -0.087953
   9 H :    0.024353
  10 H :   -0.084964
  11 H :    0.021853
  12 H :    0.022899

  Mayer bond orders larger than 0.1
B(  0-C ,  1-N ) :   0.8162 B(  0-C ,  2-C ) :   0.9330 B(  0-C ,  4-H ) :   0.9697
B(  0-C ,  5-H ) :   0.9652 B(  1-N ,  9-H ) :   0.9513 B(  1-N , 11-H ) :   0.9506
B(  1-N , 12-H ) :   0.9512 B(  2-C ,  3-N ) :   1.0168 B(  2-C ,  6-H ) :   0.9833
B(  2-C ,  7-H ) :   0.9802 B(  3-N ,  8-H ) :   0.9760 B(  3-N , 10-H ) :   0.9717

E(0)                                       ...   -189.717540403
E(0)                                       ...   -189.717540403
E(CORR)(strong-pairs)                      ...     -0.820081831
E(CORR)(weak-pairs)                        ...     -0.000548762
E(CORR)(corrected)                         ...     -0.820630593
E(TOT)                                     ...   -190.538170995
E(CCSD(T))                                 ...   -190.567201177
FINAL SINGLE POINT ENERGY      -190.567201176753

DIPOLE MOMENT
-------------
                                X             Y             Z
Electronic contribution:      0.86328      -0.23078      -0.07553
Nuclear contribution   :      1.53363       0.74664       0.29295
                        -----------------------------------------
Total Dipole Moment    :      2.39691       0.51586       0.21742
                        -----------------------------------------
Magnitude (a.u.)       :      2.46142
Magnitude (Debye)      :      6.25642

Rotational constants in cm-1:     0.835044     0.119977     0.112992
Rotational constants in MHz : 25034.000122  3596.831293  3387.417037

                             ****ORCA TERMINATED NORMALLY****
TOTAL RUN TIME: 0 days 0 hours 3 minutes 50 seconds 400 msec
