                         Program Version 4.1.x  -  STABLE  -
|  1> ! RHF DLPNO-CCSD(T) cc-pVTZ RIJK cc-pVTZ/JK cc-pVTZ/C
|  2> ! KDIIS SOSCF TightSCF TightPNO
|  3>
|  4> %pal nprocs 8 end
|  5>
|  6> %maxcore 8000
|  7>
|  8> %scf maxiter 300
|  9>      shift shift 0.2 erroff 0.1 end
| 10> end
| 11>
| 12> * xyzfile 0 1 ethanol_g.xyz
| 13>
| 14>
| 15>                          ****END OF INPUT****

CARTESIAN COORDINATES (ANGSTROEM)
---------------------------------
  C     -1.218460   -0.241620   -0.021460
  C      0.079630    0.556850    0.047250
  O      1.244580   -0.257500   -0.108760
  H      1.270610   -0.903570    0.609120
  H      0.127880    1.279500   -0.772630
  H      0.131360    1.123760    0.989140
  H     -1.284200   -0.964120    0.801650
  H     -1.283670   -0.792090   -0.965260
  H     -2.085590    0.425120    0.053320

 Total Charge           Charge          ....    0
 Multiplicity           Mult            ....    1
 Number of Electrons    NEL             ....   26
 Basis Dimension        Dim             ....  174

ORBITAL ENERGIES
----------------

  NO   OCC          E(Eh)            E(eV)
   0   2.0000     -20.549667      -559.1849
   1   2.0000     -11.275542      -306.8231
   2   2.0000     -11.220271      -305.3191
   3   2.0000      -1.349416       -36.7195
   4   2.0000      -1.009284       -27.4640
   5   2.0000      -0.845242       -23.0002
   6   2.0000      -0.681219       -18.5369
   7   2.0000      -0.618237       -16.8231
   8   2.0000      -0.603264       -16.4156
   9   2.0000      -0.542633       -14.7658
  10   2.0000      -0.523189       -14.2367
  11   2.0000      -0.479873       -13.0580
  12   2.0000      -0.441433       -12.0120
  13   0.0000       0.136235         3.7072
  14   0.0000       0.173416         4.7189
  15   0.0000       0.183752         5.0001
  16   0.0000       0.206306         5.6139
  17   0.0000       0.223075         6.0702

MULLIKEN ATOMIC CHARGES
-----------------------
   0 C :   -0.273879
   1 C :    0.073169
   2 O :   -0.422383
   3 H :    0.219515
   4 H :    0.086030
   5 H :    0.057728
   6 H :    0.074531
   7 H :    0.099827
   8 H :    0.085463
Sum of atomic charges:    0.0000000

LOEWDIN ATOMIC CHARGES
----------------------
   0 C :    0.096287
   1 C :   -0.049156
   2 O :    0.304684
   3 H :   -0.194094
   4 H :   -0.029143
   5 H :   -0.041624
   6 H :   -0.033765
   7 H :   -0.027160
   8 H :   -0.026030

  Mayer bond orders larger than 0.1
B(  0-C ,  1-C ) :   0.9626 B(  0-C ,  6-H ) :   0.9786 B(  0-C ,  7-H ) :   0.9765
B(  0-C ,  8-H ) :   0.9727 B(  1-C ,  2-O ) :   0.9813 B(  1-C ,  4-H ) :   0.9784
B(  1-C ,  5-H ) :   0.9795 B(  2-O ,  3-H ) :   0.9919

E(0)                                       ...   -154.141455482
E(0)                                       ...   -154.141455482
E(CORR)(strong-pairs)                      ...     -0.631083015
E(CORR)(weak-pairs)                        ...     -0.000334326
E(CORR)(corrected)                         ...     -0.631417341
E(TOT)                                     ...   -154.772872823
E(CCSD(T))                                 ...   -154.794548646
FINAL SINGLE POINT ENERGY      -154.794548645661

DIPOLE MOMENT
-------------
                                X             Y             Z
Electronic contribution:      2.78283      -0.23013      -0.27684
Nuclear contribution   :     -3.29002       0.17441       0.75639
                        -----------------------------------------
Total Dipole Moment    :     -0.50719      -0.05572       0.47955
                        -----------------------------------------
Magnitude (a.u.)       :      0.70023
Magnitude (Debye)      :      1.77984

Rotational constants in cm-1:     1.144874     0.303195     0.268121
Rotational constants in MHz : 34322.458415  9089.556286  8038.070575

                             ****ORCA TERMINATED NORMALLY****
TOTAL RUN TIME: 0 days 0 hours 1 minutes 3 seconds 272 msec
