                         Program Version 4.1.x  -  STABLE  -
|  1> ! RHF DLPNO-CCSD(T) cc-pVTZ RIJK cc-pVTZ/JK cc-pVTZ/C
|  2> ! KDIIS SOSCF TightSCF TightPNO
|  3>
|  4> %pal nprocs 8 end
|  5>
|  6> %maxcore 8000
|  7>
|  8> %scf maxiter 300
|  9>      shift shift 0.2 erroff 0.1 end
| 10> end
| 11>
| 12> * xyzfile 1 1 ethanediamineH_Gg.xyz
| 13>
| 14>
| 15>                          ****END OF INPUT****

CARTESIAN COORDINATES (ANGSTROEM)
---------------------------------
  C      0.771930    0.672230    0.240000
  N      1.295850   -0.652610   -0.127530
  C     -0.694540    0.742440   -0.231400
  N     -1.309920   -0.598620    0.107370
  H      1.322710    1.512880   -0.194470
  H      0.818920    0.778990    1.328270
  H     -1.264310    1.542950    0.241560
  H     -0.759300    0.847280   -1.316680
  H     -1.642220   -0.648630    1.074320
  H      1.999650   -0.984040    0.525850
  H     -2.078850   -0.868430   -0.509930
  H      1.717210   -0.661360   -1.053750
  H     -0.479660   -1.249060   -0.005660

 Total Charge           Charge          ....    1
 Multiplicity           Mult            ....    1
 Number of Electrons    NEL             ....   34
 Basis Dimension        Dim             ....  246

ORBITAL ENERGIES
----------------

  NO   OCC          E(Eh)            E(eV)
   0   2.0000     -15.862657      -431.6449
   1   2.0000     -15.728471      -427.9935
   2   2.0000     -11.472647      -312.1866
   3   2.0000     -11.442116      -311.3558
   4   2.0000      -1.485869       -40.4326
   5   2.0000      -1.359795       -37.0019
   6   2.0000      -1.180192       -32.1147
   7   2.0000      -1.027963       -27.9723
   8   2.0000      -0.951856       -25.9013
   9   2.0000      -0.944731       -25.7074
  10   2.0000      -0.858412       -23.3586
  11   2.0000      -0.822044       -22.3690
  12   2.0000      -0.783404       -21.3175
  13   2.0000      -0.763626       -20.7793
  14   2.0000      -0.715521       -19.4703
  15   2.0000      -0.687404       -18.7052
  16   2.0000      -0.592178       -16.1140
  17   0.0000      -0.056715        -1.5433
  18   0.0000      -0.008704        -0.2368
  19   0.0000      -0.004714        -0.1283
  20   0.0000       0.006764         0.1841
  21   0.0000       0.043141         1.1739

MULLIKEN ATOMIC CHARGES
-----------------------
   0 C :   -0.097020
   1 N :   -0.413763
   2 C :   -0.121397
   3 N :    0.006207
   4 H :    0.148651
   5 H :    0.141625
   6 H :    0.169467
   7 H :    0.158485
   8 H :    0.196421
   9 H :    0.198062
  10 H :    0.209553
  11 H :    0.186593
  12 H :    0.217117
Sum of atomic charges:    1.0000000

LOEWDIN ATOMIC CHARGES
----------------------
   0 C :    0.019005
   1 N :    0.382155
   2 C :    0.108107
   3 N :    0.704416
   4 H :   -0.011463
   5 H :   -0.014214
   6 H :   -0.007499
   7 H :   -0.008196
   8 H :    0.010719
   9 H :   -0.078714
  10 H :    0.008610
  11 H :   -0.080315
  12 H :   -0.032611

  Mayer bond orders larger than 0.1
B(  0-C ,  1-N ) :   0.9546 B(  0-C ,  2-C ) :   0.9399 B(  0-C ,  4-H ) :   0.9803
B(  0-C ,  5-H ) :   0.9801 B(  1-N ,  9-H ) :   0.9655 B(  1-N , 11-H ) :   0.9695
B(  1-N , 12-H ) :   0.1588 B(  2-C ,  3-N ) :   0.8558 B(  2-C ,  6-H ) :   0.9769
B(  2-C ,  7-H ) :   0.9749 B(  3-N ,  8-H ) :   0.9577 B(  3-N , 10-H ) :   0.9551
B(  3-N , 12-H ) :   0.8625

E(0)                                       ...   -189.728379103
E(0)                                       ...   -189.728379103
E(CORR)(strong-pairs)                      ...     -0.825001433
E(CORR)(weak-pairs)                        ...     -0.000594797
E(CORR)(corrected)                         ...     -0.825596230
E(TOT)                                     ...   -190.553975333
E(CCSD(T))                                 ...   -190.583820643
FINAL SINGLE POINT ENERGY      -190.583820642782

DIPOLE MOMENT
-------------
                                X             Y             Z
Electronic contribution:     -0.68708      -0.63240       0.00280
Nuclear contribution   :     -0.39363       0.28316       0.09616
                        -----------------------------------------
Total Dipole Moment    :     -1.08070      -0.34924       0.09896
                        -----------------------------------------
Magnitude (a.u.)       :      1.14004
Magnitude (Debye)      :      2.89774

Rotational constants in cm-1:     0.407041     0.192396     0.149587
Rotational constants in MHz : 12202.773239  5767.874214  4484.518782

                             ****ORCA TERMINATED NORMALLY****
TOTAL RUN TIME: 0 days 0 hours 3 minutes 47 seconds 868 msec
