                         Program Version 4.1.x  -  STABLE  -
|  1> ! RHF DLPNO-CCSD(T) cc-pVTZ RIJK cc-pVTZ/JK cc-pVTZ/C
|  2> ! KDIIS SOSCF TightSCF TightPNO
|  3>
|  4> %pal nprocs 8 end
|  5>
|  6> %maxcore 8000
|  7>
|  8> %scf maxiter 300
|  9>      shift shift 0.2 erroff 0.1 end
| 10> end
| 11>
| 12> * xyzfile 0 1 ethane_g.xyz
| 13>
| 14>
| 15>                          ****END OF INPUT****

CARTESIAN COORDINATES (ANGSTROEM)
---------------------------------
  C      0.132830   -0.284220   -0.698580
  C     -0.132830    0.284210    0.698570
  H      0.957090    0.269680   -1.204930
  H      0.424940   -1.358580   -0.643680
  H     -0.775720   -0.208350   -1.339950
  H     -0.957110   -0.269640    1.204950
  H      0.775710    0.208340    1.339970
  H     -0.424910    1.358580    0.643680

 Total Charge           Charge          ....    0
 Multiplicity           Mult            ....    1
 Number of Electrons    NEL             ....   18
 Basis Dimension        Dim             ....  144

ORBITAL ENERGIES
----------------

  NO   OCC          E(Eh)            E(eV)
   0   2.0000     -11.221564      -305.3543
   1   2.0000     -11.220972      -305.3382
   2   2.0000      -1.011342       -27.5200
   3   2.0000      -0.831382       -22.6231
   4   2.0000      -0.590710       -16.0740
   5   2.0000      -0.590707       -16.0740
   6   2.0000      -0.507074       -13.7982
   7   2.0000      -0.481344       -13.0980
   8   2.0000      -0.481340       -13.0979
   9   0.0000       0.139881         3.8064
  10   0.0000       0.181032         4.9261
  11   0.0000       0.206710         5.6249
  12   0.0000       0.206710         5.6249
  13   0.0000       0.235009         6.3949

MULLIKEN ATOMIC CHARGES
-----------------------
   0 C :   -0.247446
   1 C :   -0.247449
   2 H :    0.082481
   3 H :    0.082483
   4 H :    0.082487
   5 H :    0.082479
   6 H :    0.082483
   7 H :    0.082482
Sum of atomic charges:   -0.0000000

LOEWDIN ATOMIC CHARGES
----------------------
   0 C :    0.079760
   1 C :    0.079755
   2 H :   -0.026583
   3 H :   -0.026586
   4 H :   -0.026589
   5 H :   -0.026584
   6 H :   -0.026586
   7 H :   -0.026586

  Mayer bond orders larger than 0.1
B(  0-C ,  1-C ) :   0.9528 B(  0-C ,  2-H ) :   0.9821 B(  0-C ,  3-H ) :   0.9821
B(  0-C ,  4-H ) :   0.9821 B(  1-C ,  5-H ) :   0.9821 B(  1-C ,  6-H ) :   0.9821
B(  1-C ,  7-H ) :   0.9821

E(0)                                       ...    -79.256430935
E(0)                                       ...    -79.256430935
E(CORR)(strong-pairs)                      ...     -0.402381562
E(CORR)(weak-pairs)                        ...     -0.000166008
E(CORR)(corrected)                         ...     -0.402547570
E(TOT)                                     ...    -79.658978505
E(CCSD(T))                                 ...    -79.672395101
FINAL SINGLE POINT ENERGY       -79.672395101230

DIPOLE MOMENT
-------------
                                X             Y             Z
Electronic contribution:     -0.00000      -0.00004      -0.00006
Nuclear contribution   :     -0.00000       0.00004       0.00005
                        -----------------------------------------
Total Dipole Moment    :     -0.00000       0.00000      -0.00000
                        -----------------------------------------
Magnitude (a.u.)       :      0.00000
Magnitude (Debye)      :      0.00001

Rotational constants in cm-1:     2.573392     0.659203     0.659203
Rotational constants in MHz : 77148.351001 19762.419652 19762.399607

                             ****ORCA TERMINATED NORMALLY****
TOTAL RUN TIME: 0 days 0 hours 0 minutes 48 seconds 368 msec
