                         Program Version 4.1.x  -  STABLE  -
|  1> ! RHF DLPNO-CCSD(T) cc-pVTZ RIJK cc-pVTZ/JK cc-pVTZ/C
|  2> ! KDIIS SOSCF TightSCF TightPNO
|  3>
|  4> %pal nprocs 8 end
|  5>
|  6> %maxcore 8000
|  7>
|  8> %scf maxiter 300
|  9>      shift shift 0.2 erroff 0.1 end
| 10> end
| 11>
| 12> * xyzfile 0 1 ethanethiol_a.xyz
| 13>
| 14>
| 15>                          ****END OF INPUT****

CARTESIAN COORDINATES (ANGSTROEM)
---------------------------------
  C      1.645370   -0.335440    0.000000
  C      0.497070    0.672140   -0.000000
  S     -1.116150   -0.233020   -0.000000
  H     -1.916490    0.852670    0.000020
  H      0.545510    1.308210    0.888050
  H      0.545500    1.308220   -0.888050
  H      1.612060   -0.976640   -0.886750
  H      1.612070   -0.976630    0.886770
  H      2.605140    0.192380   -0.000020

 Total Charge           Charge          ....    0
 Multiplicity           Mult            ....    1
 Number of Electrons    NEL             ....   34
 Basis Dimension        Dim             ....  178

ORBITAL ENERGIES
----------------

  NO   OCC          E(Eh)            E(eV)
   0   2.0000     -91.946523     -2501.9921
   1   2.0000     -11.265188      -306.5414
   2   2.0000     -11.229180      -305.5615
   3   2.0000      -8.948331      -243.4965
   4   2.0000      -6.629618      -180.4011
   5   2.0000      -6.628609      -180.3736
   6   2.0000      -6.627618      -180.3467
   7   2.0000      -1.064762       -28.9737
   8   2.0000      -0.939915       -25.5764
   9   2.0000      -0.817013       -22.2321
  10   2.0000      -0.628728       -17.1086
  11   2.0000      -0.611402       -16.6371
  12   2.0000      -0.539854       -14.6902
  13   2.0000      -0.513625       -13.9764
  14   2.0000      -0.499004       -13.5786
  15   2.0000      -0.444848       -12.1049
  16   2.0000      -0.354091        -9.6353
  17   0.0000       0.125532         3.4159
  18   0.0000       0.165413         4.5011
  19   0.0000       0.178814         4.8658
  20   0.0000       0.192986         5.2514
  21   0.0000       0.198984         5.4146

MULLIKEN ATOMIC CHARGES
-----------------------
   0 C :   -0.281766
   1 C :   -0.135797
   2 S :   -0.191901
   3 H :    0.087398
   4 H :    0.108638
   5 H :    0.108636
   6 H :    0.102698
   7 H :    0.102695
   8 H :    0.099398
Sum of atomic charges:   -0.0000000

LOEWDIN ATOMIC CHARGES
----------------------
   0 C :    0.085726
   1 C :   -0.088067
   2 S :    0.322713
   3 H :   -0.154276
   4 H :   -0.043372
   5 H :   -0.043370
   6 H :   -0.026747
   7 H :   -0.026742
   8 H :   -0.025864

  Mayer bond orders larger than 0.1
B(  0-C ,  1-C ) :   0.9569 B(  0-C ,  6-H ) :   0.9777 B(  0-C ,  7-H ) :   0.9777
B(  0-C ,  8-H ) :   0.9780 B(  1-C ,  2-S ) :   0.9865 B(  1-C ,  4-H ) :   0.9760
B(  1-C ,  5-H ) :   0.9760 B(  2-S ,  3-H ) :   1.0129

E(0)                                       ...   -476.804162207
E(0)                                       ...   -476.804162207
E(CORR)(strong-pairs)                      ...     -0.581737767
E(CORR)(weak-pairs)                        ...     -0.000292502
E(CORR)(corrected)                         ...     -0.582030268
E(TOT)                                     ...   -477.386192475
E(CCSD(T))                                 ...   -477.408732870
FINAL SINGLE POINT ENERGY      -477.408732870412

DIPOLE MOMENT
-------------
                                X             Y             Z
Electronic contribution:     -4.74525      -1.21477      -0.00001
Nuclear contribution   :      5.17807       1.76300       0.00002
                        -----------------------------------------
Total Dipole Moment    :      0.43282       0.54823       0.00000
                        -----------------------------------------
Magnitude (a.u.)       :      0.69849
Magnitude (Debye)      :      1.77542

Rotational constants in cm-1:     0.952686     0.178060     0.159007
Rotational constants in MHz : 28560.808057  5338.117190  4766.908501

                             ****ORCA TERMINATED NORMALLY****
TOTAL RUN TIME: 0 days 0 hours 1 minutes 27 seconds 848 msec
