                         Program Version 4.1.x  -  STABLE  -
|  1> ! RHF DLPNO-CCSD(T) cc-pVTZ RIJK cc-pVTZ/JK cc-pVTZ/C
|  2> ! KDIIS SOSCF TightSCF TightPNO
|  3>
|  4> %pal nprocs 8 end
|  5>
|  6> %maxcore 8000
|  7>
|  8> %scf maxiter 300
|  9>      shift shift 0.2 erroff 0.1 end
| 10> end
| 11>
| 12> * xyzfile 0 1 ethanol_ecl.xyz
| 13>
| 14>
| 15>                          ****END OF INPUT****

CARTESIAN COORDINATES (ANGSTROEM)
---------------------------------
  C      1.246400   -0.201080    0.000020
  C     -0.103230    0.530950   -0.000030
  O     -1.158910   -0.403920   -0.000060
  H     -1.965900    0.082200    0.000450
  H     -0.222950    1.173780    0.905220
  H     -0.222870    1.173810   -0.905270
  H      1.850380    0.065430    0.898020
  H      1.123090   -1.308520    0.000020
  H      1.850500    0.065470   -0.897890

 Total Charge           Charge          ....    0
 Multiplicity           Mult            ....    1
 Number of Electrons    NEL             ....   26
 Basis Dimension        Dim             ....  174

ORBITAL ENERGIES
----------------

  NO   OCC          E(Eh)            E(eV)
   0   2.0000     -20.545984      -559.0847
   1   2.0000     -11.279336      -306.9263
   2   2.0000     -11.221715      -305.3584
   3   2.0000      -1.362594       -37.0781
   4   2.0000      -1.000066       -27.2132
   5   2.0000      -0.829858       -22.5816
   6   2.0000      -0.698705       -19.0127
   7   2.0000      -0.638980       -17.3875
   8   2.0000      -0.569062       -15.4850
   9   2.0000      -0.525924       -14.3111
  10   2.0000      -0.523550       -14.2465
  11   2.0000      -0.485821       -13.2199
  12   2.0000      -0.430766       -11.7217
  13   0.0000       0.138190         3.7603
  14   0.0000       0.165282         4.4976
  15   0.0000       0.190944         5.1959
  16   0.0000       0.201833         5.4922
  17   0.0000       0.232530         6.3275

MULLIKEN ATOMIC CHARGES
-----------------------
   0 C :   -0.278085
   1 C :    0.095848
   2 O :   -0.399252
   3 H :    0.214245
   4 H :    0.043817
   5 H :    0.043825
   6 H :    0.085494
   7 H :    0.108609
   8 H :    0.085499
Sum of atomic charges:    0.0000000

LOEWDIN ATOMIC CHARGES
----------------------
   0 C :    0.091203
   1 C :   -0.067561
   2 O :    0.343267
   3 H :   -0.222741
   4 H :   -0.039369
   5 H :   -0.039371
   6 H :   -0.024393
   7 H :   -0.016643
   8 H :   -0.024392

  Mayer bond orders larger than 0.1
B(  0-C ,  1-C ) :   0.9339 B(  0-C ,  6-H ) :   0.9871 B(  0-C ,  7-H ) :   0.9744
B(  0-C ,  8-H ) :   0.9871 B(  1-C ,  2-O ) :   0.9889 B(  1-C ,  4-H ) :   0.9864
B(  1-C ,  5-H ) :   0.9864 B(  2-O ,  3-H ) :   1.0010

E(0)                                       ...   -154.133674243
E(0)                                       ...   -154.133674243
E(CORR)(strong-pairs)                      ...     -0.630660084
E(CORR)(weak-pairs)                        ...     -0.000332434
E(CORR)(corrected)                         ...     -0.630992518
E(TOT)                                     ...   -154.764666761
E(CCSD(T))                                 ...   -154.786224503
FINAL SINGLE POINT ENERGY      -154.786224502797

DIPOLE MOMENT
-------------
                                X             Y             Z
Electronic contribution:     -2.59671      -0.69212      -0.00022
Nuclear contribution   :      2.53745       1.32046       0.00058
                        -----------------------------------------
Total Dipole Moment    :     -0.05925       0.62833       0.00036
                        -----------------------------------------
Magnitude (a.u.)       :      0.63112
Magnitude (Debye)      :      1.60418

Rotational constants in cm-1:     1.190135     0.302755     0.266355
Rotational constants in MHz : 35679.356613  9076.362553  7985.123792

                             ****ORCA TERMINATED NORMALLY****
TOTAL RUN TIME: 0 days 0 hours 1 minutes 3 seconds 627 msec
