                         Program Version 4.1.x  -  STABLE  -
|  1> ! RHF DLPNO-CCSD(T) cc-pVTZ RIJK cc-pVTZ/JK cc-pVTZ/C
|  2> ! KDIIS SOSCF TightSCF TightPNO
|  3>
|  4> %pal nprocs 8 end
|  5>
|  6> %maxcore 8000
|  7>
|  8> %scf maxiter 300
|  9>      shift shift 0.2 erroff 0.1 end
| 10> end
| 11>
| 12> * xyzfile 0 1 ethylamine_g.xyz
| 13>
| 14>
| 15>                          ****END OF INPUT****

CARTESIAN COORDINATES (ANGSTROEM)
---------------------------------
  C      1.250030   -0.239660   -0.029520
  C     -0.047290    0.562060    0.056290
  N     -1.210580   -0.319690   -0.114160
  H     -0.074790    1.300390   -0.753750
  H     -0.063050    1.128310    1.003760
  H      2.121880    0.416750    0.065590
  H      1.306200   -0.983690    0.774850
  H     -1.264660   -0.997100    0.642720
  H      1.310300   -0.770420   -0.984660
  H     -2.078260    0.209140   -0.110030

 Total Charge           Charge          ....    0
 Multiplicity           Mult            ....    1
 Number of Electrons    NEL             ....   26
 Basis Dimension        Dim             ....  188

ORBITAL ENERGIES
----------------

  NO   OCC          E(Eh)            E(eV)
   0   2.0000     -15.532620      -422.6641
   1   2.0000     -11.247064      -306.0482
   2   2.0000     -11.210819      -305.0619
   3   2.0000      -1.168588       -31.7989
   4   2.0000      -0.983742       -26.7690
   5   2.0000      -0.819711       -22.3055
   6   2.0000      -0.655895       -17.8478
   7   2.0000      -0.626531       -17.0488
   8   2.0000      -0.577765       -15.7218
   9   2.0000      -0.513813       -13.9816
  10   2.0000      -0.506124       -13.7723
  11   2.0000      -0.486511       -13.2386
  12   2.0000      -0.385317       -10.4850
  13   0.0000       0.139640         3.7998
  14   0.0000       0.172626         4.6974
  15   0.0000       0.180528         4.9124
  16   0.0000       0.202020         5.4972
  17   0.0000       0.222401         6.0518

MULLIKEN ATOMIC CHARGES
-----------------------
   0 C :   -0.270507
   1 C :   -0.033550
   2 N :   -0.383635
   3 H :    0.082525
   4 H :    0.059754
   5 H :    0.087087
   6 H :    0.078176
   7 H :    0.139689
   8 H :    0.098975
   9 H :    0.141487
Sum of atomic charges:    0.0000000

LOEWDIN ATOMIC CHARGES
----------------------
   0 C :    0.100181
   1 C :   -0.022295
   2 N :    0.311279
   3 H :   -0.032072
   4 H :   -0.047025
   5 H :   -0.029922
   6 H :   -0.033282
   7 H :   -0.109234
   8 H :   -0.028055
   9 H :   -0.109575

  Mayer bond orders larger than 0.1
B(  0-C ,  1-C ) :   0.9569 B(  0-C ,  5-H ) :   0.9829 B(  0-C ,  6-H ) :   0.9819
B(  0-C ,  8-H ) :   0.9774 B(  1-C ,  2-N ) :   0.9696 B(  1-C ,  3-H ) :   0.9814
B(  1-C ,  4-H ) :   0.9817 B(  2-N ,  7-H ) :   0.9878 B(  2-N ,  9-H ) :   0.9896

E(0)                                       ...   -134.303507312
E(0)                                       ...   -134.303507312
E(CORR)(strong-pairs)                      ...     -0.612921311
E(CORR)(weak-pairs)                        ...     -0.000346549
E(CORR)(corrected)                         ...     -0.613267860
E(TOT)                                     ...   -134.916775172
E(CCSD(T))                                 ...   -134.938485260
FINAL SINGLE POINT ENERGY      -134.938485260256

DIPOLE MOMENT
-------------
                                X             Y             Z
Electronic contribution:     -1.43510      -0.08379      -0.25840
Nuclear contribution   :      1.35439       0.32656       0.69079
                        -----------------------------------------
Total Dipole Moment    :     -0.08071       0.24277       0.43239
                        -----------------------------------------
Magnitude (a.u.)       :      0.50241
Magnitude (Debye)      :      1.27702

Rotational constants in cm-1:     1.087653     0.295419     0.259400
Rotational constants in MHz : 32607.015656  8856.425643  7776.617943

                             ****ORCA TERMINATED NORMALLY****
TOTAL RUN TIME: 0 days 0 hours 1 minutes 18 seconds 853 msec
