                         Program Version 4.1.x  -  STABLE  -
|  1> ! RHF DLPNO-CCSD(T) cc-pVTZ RIJK cc-pVTZ/JK cc-pVTZ/C
|  2> ! KDIIS SOSCF TightSCF TightPNO
|  3>
|  4> %pal nprocs 8 end
|  5>
|  6> %maxcore 8000
|  7>
|  8> %scf maxiter 300
|  9>      shift shift 0.2 erroff 0.1 end
| 10> end
| 11>
| 12> * xyzfile 0 1 ethylamine_anti.xyz
| 13>
| 14>
| 15>                          ****END OF INPUT****

CARTESIAN COORDINATES (ANGSTROEM)
---------------------------------
  C      1.197660   -0.270230    0.000010
  C     -0.057350    0.609150   -0.000010
  N     -1.249150   -0.203130   -0.000020
  H     -1.267330   -0.819310   -0.811790
  H     -1.267460   -0.819140    0.811890
  H      2.122010    0.352810    0.000010
  H      1.227730   -0.925460    0.901200
  H      1.227750   -0.925480   -0.901180
  H     -0.070280    1.262510    0.904300
  H     -0.070270    1.262490   -0.904340

 Total Charge           Charge          ....    0
 Multiplicity           Mult            ....    1
 Number of Electrons    NEL             ....   26
 Basis Dimension        Dim             ....  188

ORBITAL ENERGIES
----------------

  NO   OCC          E(Eh)            E(eV)
   0   2.0000     -15.531149      -422.6240
   1   2.0000     -11.251157      -306.1595
   2   2.0000     -11.219975      -305.3110
   3   2.0000      -1.179083       -32.0845
   4   2.0000      -0.976053       -26.5597
   5   2.0000      -0.823106       -22.3978
   6   2.0000      -0.669565       -18.2198
   7   2.0000      -0.596089       -16.2204
   8   2.0000      -0.562070       -15.2947
   9   2.0000      -0.559916       -15.2361
  10   2.0000      -0.505733       -13.7617
  11   2.0000      -0.480029       -13.0623
  12   2.0000      -0.381369       -10.3776
  13   0.0000       0.137539         3.7426
  14   0.0000       0.175614         4.7787
  15   0.0000       0.179274         4.8783
  16   0.0000       0.186791         5.0828
  17   0.0000       0.226624         6.1668

MULLIKEN ATOMIC CHARGES
-----------------------
   0 C :   -0.257401
   1 C :   -0.040950
   2 N :   -0.355133
   3 H :    0.130602
   4 H :    0.130601
   5 H :    0.076317
   6 H :    0.074000
   7 H :    0.073994
   8 H :    0.083987
   9 H :    0.083984
Sum of atomic charges:   -0.0000000

LOEWDIN ATOMIC CHARGES
----------------------
   0 C :    0.076213
   1 C :   -0.048983
   2 N :    0.314443
   3 H :   -0.104672
   4 H :   -0.104662
   5 H :   -0.027430
   6 H :   -0.029597
   7 H :   -0.029591
   8 H :   -0.022861
   9 H :   -0.022860

  Mayer bond orders larger than 0.1
B(  0-C ,  1-C ) :   0.9604 B(  0-C ,  5-H ) :   0.9760 B(  0-C ,  6-H ) :   0.9787
B(  0-C ,  7-H ) :   0.9787 B(  1-C ,  2-N ) :   0.9884 B(  1-C ,  8-H ) :   0.9850
B(  1-C ,  9-H ) :   0.9850 B(  2-N ,  3-H ) :   0.9999 B(  2-N ,  4-H ) :   0.9999

E(0)                                       ...   -134.299532228
E(0)                                       ...   -134.299532228
E(CORR)(strong-pairs)                      ...     -0.613985585
E(CORR)(weak-pairs)                        ...     -0.000351605
E(CORR)(corrected)                         ...     -0.614337189
E(TOT)                                     ...   -134.913869418
E(CCSD(T))                                 ...   -134.935793762
FINAL SINGLE POINT ENERGY      -134.935793761712

DIPOLE MOMENT
-------------
                                X             Y             Z
Electronic contribution:     -1.66076       0.34127      -0.00003
Nuclear contribution   :      2.05222      -0.66368       0.00011
                        -----------------------------------------
Total Dipole Moment    :      0.39146      -0.32241       0.00008
                        -----------------------------------------
Magnitude (a.u.)       :      0.50713
Magnitude (Debye)      :      1.28903

Rotational constants in cm-1:     0.995516     0.309375     0.271051
Rotational constants in MHz : 29844.829891  9274.824522  8125.906102

                             ****ORCA TERMINATED NORMALLY****
TOTAL RUN TIME: 0 days 0 hours 1 minutes 19 seconds 576 msec
