                         Program Version 4.1.x  -  STABLE  -
|  1> ! RHF DLPNO-CCSD(T) cc-pVTZ RIJK cc-pVTZ/JK cc-pVTZ/C
|  2> ! KDIIS SOSCF TightSCF TightPNO
|  3>
|  4> %pal nprocs 8 end
|  5>
|  6> %maxcore 8000
|  7>
|  8> %scf maxiter 300
|  9>      shift shift 0.2 erroff 0.1 end
| 10> end
| 11>
| 12> * xyzfile 0 1 ethylphosphine_g.xyz
| 13>
| 14>
| 15>                          ****END OF INPUT****

CARTESIAN COORDINATES (ANGSTROEM)
---------------------------------
  C      0.521540    0.663760    0.045220
  C      1.685030   -0.334030   -0.014990
  P     -1.147380   -0.197690   -0.113960
  H     -1.966700    0.908750    0.254080
  H     -1.183690   -0.772840    1.190350
  H      0.588100    1.366040   -0.794150
  H      0.570020    1.255270    0.964770
  H      2.648150    0.187290    0.021280
  H      1.656430   -1.032680    0.828880
  H      1.659000   -0.924830   -0.937200

 Total Charge           Charge          ....    0
 Multiplicity           Mult            ....    1
 Number of Electrons    NEL             ....   34
 Basis Dimension        Dim             ....  192

ORBITAL ENERGIES
----------------

  NO   OCC          E(Eh)            E(eV)
   0   2.0000     -79.935684     -2175.1606
   1   2.0000     -11.236301      -305.7553
   2   2.0000     -11.224735      -305.4406
   3   2.0000      -7.477731      -203.4794
   4   2.0000      -5.371360      -146.1621
   5   2.0000      -5.371115      -146.1555
   6   2.0000      -5.370143      -146.1290
   7   2.0000      -1.035271       -28.1712
   8   2.0000      -0.878523       -23.9058
   9   2.0000      -0.776364       -21.1259
  10   2.0000      -0.617304       -16.7977
  11   2.0000      -0.587568       -15.9885
  12   2.0000      -0.533046       -14.5049
  13   2.0000      -0.507449       -13.8084
  14   2.0000      -0.486156       -13.2290
  15   2.0000      -0.452208       -12.3052
  16   2.0000      -0.359257        -9.7759
  17   0.0000       0.122962         3.3460
  18   0.0000       0.159590         4.3427
  19   0.0000       0.173402         4.7185
  20   0.0000       0.175860         4.7854
  21   0.0000       0.192870         5.2483

MULLIKEN ATOMIC CHARGES
-----------------------
   0 C :   -0.224333
   1 C :   -0.284487
   2 P :    0.002484
   3 H :    0.004780
   4 H :    0.002024
   5 H :    0.096824
   6 H :    0.106095
   7 H :    0.101672
   8 H :    0.094920
   9 H :    0.100021
Sum of atomic charges:   -0.0000000

LOEWDIN ATOMIC CHARGES
----------------------
   0 C :   -0.074088
   1 C :    0.082645
   2 P :    0.415157
   3 H :   -0.124669
   4 H :   -0.125075
   5 H :   -0.041539
   6 H :   -0.044553
   7 H :   -0.028772
   8 H :   -0.029851
   9 H :   -0.029256

  Mayer bond orders larger than 0.1
B(  0-C ,  1-C ) :   0.9461 B(  0-C ,  2-P ) :   0.9885 B(  0-C ,  5-H ) :   0.9711
B(  0-C ,  6-H ) :   0.9777 B(  1-C ,  7-H ) :   0.9800 B(  1-C ,  8-H ) :   0.9798
B(  1-C ,  9-H ) :   0.9781 B(  2-P ,  3-H ) :   0.9928 B(  2-P ,  4-H ) :   0.9889

E(0)                                       ...   -420.584174235
E(0)                                       ...   -420.584174235
E(CORR)(strong-pairs)                      ...     -0.566400955
E(CORR)(weak-pairs)                        ...     -0.000299192
E(CORR)(corrected)                         ...     -0.566700147
E(TOT)                                     ...   -421.150874382
E(CCSD(T))                                 ...   -421.172252489
FINAL SINGLE POINT ENERGY      -421.172252488729

DIPOLE MOMENT
-------------
                                X             Y             Z
Electronic contribution:     -4.87130      -0.92401      -1.44957
Nuclear contribution   :      5.21114       1.20941       1.68408
                        -----------------------------------------
Total Dipole Moment    :      0.33984       0.28540       0.23452
                        -----------------------------------------
Magnitude (a.u.)       :      0.50194
Magnitude (Debye)      :      1.27582

Rotational constants in cm-1:     0.858852     0.166244     0.151738
Rotational constants in MHz : 25747.736962  4983.871477  4548.992229

                             ****ORCA TERMINATED NORMALLY****
TOTAL RUN TIME: 0 days 0 hours 2 minutes 17 seconds 169 msec
