                         Program Version 4.1.x  -  STABLE  -
|  1> ! RHF DLPNO-CCSD(T) cc-pVTZ RIJK cc-pVTZ/JK cc-pVTZ/C
|  2> ! KDIIS SOSCF TightSCF TightPNO
|  3>
|  4> %pal nprocs 8 end
|  5>
|  6> %maxcore 8000
|  7>
|  8> %scf maxiter 300
|  9>      shift shift 0.2 erroff 0.1 end
| 10> end
| 11>
| 12> * xyzfile 0 1 ethylamine_a.xyz
| 13>
| 14>
| 15>                          ****END OF INPUT****

CARTESIAN COORDINATES (ANGSTROEM)
---------------------------------
  C      1.245330   -0.264950    0.000020
  C     -0.042650    0.570420   -0.000020
  N     -1.300460   -0.183310   -0.000020
  H     -0.053790    1.229090   -0.876840
  H     -0.053840    1.229100    0.876790
  H      2.134410    0.377830   -0.000000
  H      1.296480   -0.909380    0.886080
  H     -1.366220   -0.783590   -0.818430
  H      1.296470   -0.909430   -0.886010
  H     -1.366410   -0.783280    0.818590

 Total Charge           Charge          ....    0
 Multiplicity           Mult            ....    1
 Number of Electrons    NEL             ....   26
 Basis Dimension        Dim             ....  188

ORBITAL ENERGIES
----------------

  NO   OCC          E(Eh)            E(eV)
   0   2.0000     -15.532969      -422.6736
   1   2.0000     -11.247237      -306.0529
   2   2.0000     -11.214438      -305.1604
   3   2.0000      -1.169555       -31.8252
   4   2.0000      -0.983445       -26.7609
   5   2.0000      -0.827531       -22.5183
   6   2.0000      -0.667635       -18.1673
   7   2.0000      -0.594573       -16.1792
   8   2.0000      -0.567376       -15.4391
   9   2.0000      -0.561126       -15.2690
  10   2.0000      -0.504211       -13.7203
  11   2.0000      -0.480872       -13.0852
  12   2.0000      -0.384745       -10.4694
  13   0.0000       0.137421         3.7394
  14   0.0000       0.175712         4.7814
  15   0.0000       0.182313         4.9610
  16   0.0000       0.188036         5.1167
  17   0.0000       0.226642         6.1672

MULLIKEN ATOMIC CHARGES
-----------------------
   0 C :   -0.268215
   1 C :   -0.051557
   2 N :   -0.377947
   3 H :    0.089321
   4 H :    0.089319
   5 H :    0.086887
   6 H :    0.079178
   7 H :    0.136919
   8 H :    0.079173
   9 H :    0.136922
Sum of atomic charges:   -0.0000000

LOEWDIN ATOMIC CHARGES
----------------------
   0 C :    0.092197
   1 C :   -0.026616
   2 N :    0.314598
   3 H :   -0.030697
   4 H :   -0.030697
   5 H :   -0.029065
   6 H :   -0.034934
   7 H :   -0.109923
   8 H :   -0.034932
   9 H :   -0.109931

  Mayer bond orders larger than 0.1
B(  0-C ,  1-C ) :   0.9562 B(  0-C ,  5-H ) :   0.9756 B(  0-C ,  6-H ) :   0.9785
B(  0-C ,  8-H ) :   0.9785 B(  1-C ,  2-N ) :   0.9867 B(  1-C ,  3-H ) :   0.9862
B(  1-C ,  4-H ) :   0.9862 B(  2-N ,  7-H ) :   0.9963 B(  2-N ,  9-H ) :   0.9963

E(0)                                       ...   -134.303339801
E(0)                                       ...   -134.303339801
E(CORR)(strong-pairs)                      ...     -0.613089260
E(CORR)(weak-pairs)                        ...     -0.000344415
E(CORR)(corrected)                         ...     -0.613433674
E(TOT)                                     ...   -134.916773475
E(CCSD(T))                                 ...   -134.938562539
FINAL SINGLE POINT ENERGY      -134.938562539307

DIPOLE MOMENT
-------------
                                X             Y             Z
Electronic contribution:     -1.65613       0.26239      -0.00006
Nuclear contribution   :      2.03559      -0.59648       0.00018
                        -----------------------------------------
Total Dipole Moment    :      0.37946      -0.33409       0.00012
                        -----------------------------------------
Magnitude (a.u.)       :      0.50557
Magnitude (Debye)      :      1.28507

Rotational constants in cm-1:     1.067735     0.288175     0.258079
Rotational constants in MHz : 32009.897957  8639.262384  7737.015162

                             ****ORCA TERMINATED NORMALLY****
TOTAL RUN TIME: 0 days 0 hours 1 minutes 25 seconds 486 msec
