                         Program Version 4.1.x  -  STABLE  -
|  1> ! RHF DLPNO-CCSD(T) cc-pVTZ RIJK cc-pVTZ/JK cc-pVTZ/C
|  2> ! KDIIS SOSCF TightSCF TightPNO
|  3>
|  4> %pal nprocs 8 end
|  5>
|  6> %maxcore 8000
|  7>
|  8> %scf maxiter 300
|  9>      shift shift 0.2 erroff 0.1 end
| 10> end
| 11>
| 12> * xyzfile 0 1 ethyl_methyl_ether_a.xyz
| 13>
| 14>
| 15>                          ****END OF INPUT****

CARTESIAN COORDINATES (ANGSTROEM)
---------------------------------
  C      1.859350   -0.169100    0.000050
  C      0.497790    0.505270   -0.000050
  O     -0.508990   -0.497580   -0.000090
  C     -1.820430    0.032860    0.000050
  H      2.655090    0.583600    0.000040
  H      1.977320   -0.798980    0.887110
  H      0.383080    1.148770    0.888800
  H     -2.511100   -0.813410    0.000050
  H     -2.006610    0.648340    0.894310
  H     -2.006750    0.648460   -0.894090
  H      1.977380   -0.799070   -0.886950
  H      0.383170    1.148740   -0.888930

 Total Charge           Charge          ....    0
 Multiplicity           Mult            ....    1
 Number of Electrons    NEL             ....   34
 Basis Dimension        Dim             ....  232

ORBITAL ENERGIES
----------------

  NO   OCC          E(Eh)            E(eV)
   0   2.0000     -20.549749      -559.1871
   1   2.0000     -11.273661      -306.7719
   2   2.0000     -11.268489      -306.6312
   3   2.0000     -11.213846      -305.1443
   4   2.0000      -1.365691       -37.1624
   5   2.0000      -1.020999       -27.7828
   6   2.0000      -0.911435       -24.8014
   7   2.0000      -0.827499       -22.5174
   8   2.0000      -0.664411       -18.0795
   9   2.0000      -0.648685       -17.6516
  10   2.0000      -0.621766       -16.9191
  11   2.0000      -0.579782       -15.7767
  12   2.0000      -0.533749       -14.5241
  13   2.0000      -0.505161       -13.7461
  14   2.0000      -0.501087       -13.6353
  15   2.0000      -0.472279       -12.8514
  16   2.0000      -0.418861       -11.3978
  17   0.0000       0.142402         3.8750
  18   0.0000       0.160430         4.3655
  19   0.0000       0.196086         5.3358
  20   0.0000       0.196643         5.3509
  21   0.0000       0.218711         5.9514

MULLIKEN ATOMIC CHARGES
-----------------------
   0 C :   -0.262917
   1 C :    0.084610
   2 O :   -0.364331
   3 C :   -0.054163
   4 H :    0.080199
   5 H :    0.095890
   6 H :    0.052211
   7 H :    0.105260
   8 H :    0.057565
   9 H :    0.057568
  10 H :    0.095887
  11 H :    0.052221
Sum of atomic charges:   -0.0000000

LOEWDIN ATOMIC CHARGES
----------------------
   0 C :    0.104756
   1 C :   -0.066899
   2 O :    0.241783
   3 C :   -0.000555
   4 H :   -0.027862
   5 H :   -0.026726
   6 H :   -0.039635
   7 H :   -0.032062
   8 H :   -0.043220
   9 H :   -0.043223
  10 H :   -0.026721
  11 H :   -0.039636

  Mayer bond orders larger than 0.1
B(  0-C ,  1-C ) :   0.9758 B(  0-C ,  4-H ) :   0.9779 B(  0-C ,  5-H ) :   0.9793
B(  0-C , 10-H ) :   0.9793 B(  1-C ,  2-O ) :   0.9866 B(  1-C ,  6-H ) :   0.9700
B(  1-C , 11-H ) :   0.9700 B(  2-O ,  3-C ) :   0.9962 B(  3-C ,  7-H ) :   0.9836
B(  3-C ,  8-H ) :   0.9703 B(  3-C ,  9-H ) :   0.9703

E(0)                                       ...   -193.178544953
E(0)                                       ...   -193.178544953
E(CORR)(strong-pairs)                      ...     -0.812327123
E(CORR)(weak-pairs)                        ...     -0.000539236
E(CORR)(corrected)                         ...     -0.812866360
E(TOT)                                     ...   -193.991411313
E(CCSD(T))                                 ...   -194.020349599
FINAL SINGLE POINT ENERGY      -194.020349598585

DIPOLE MOMENT
-------------
                                X             Y             Z
Electronic contribution:     -0.98176      -1.35121      -0.00031
Nuclear contribution   :      0.89633       1.86859       0.00038
                        -----------------------------------------
Total Dipole Moment    :     -0.08542       0.51739       0.00007
                        -----------------------------------------
Magnitude (a.u.)       :      0.52439
Magnitude (Debye)      :      1.33289

Rotational constants in cm-1:     0.941007     0.137052     0.128357
Rotational constants in MHz : 28210.692754  4108.713035  3848.038129

                             ****ORCA TERMINATED NORMALLY****
TOTAL RUN TIME: 0 days 0 hours 1 minutes 53 seconds 653 msec
