                         Program Version 4.1.x  -  STABLE  -
|  1> ! RHF DLPNO-CCSD(T) cc-pVTZ RIJK cc-pVTZ/JK cc-pVTZ/C
|  2> ! KDIIS SOSCF TightSCF TightPNO
|  3>
|  4> %pal nprocs 8 end
|  5>
|  6> %maxcore 8000
|  7>
|  8> %scf maxiter 300
|  9>      shift shift 0.2 erroff 0.1 end
| 10> end
| 11>
| 12> * xyzfile 0 1 ethylamine_ecl.xyz
| 13>
| 14>
| 15>                          ****END OF INPUT****

CARTESIAN COORDINATES (ANGSTROEM)
---------------------------------
  C     -1.205660   -0.264530    0.000010
  C      0.061070    0.604410   -0.000010
  N      1.255050   -0.205380   -0.000010
  H      1.274690   -0.821210    0.812010
  H      1.274640   -0.821320   -0.811950
  H     -0.965990   -1.352740    0.000010
  H     -1.835260   -0.066020    0.898190
  H     -1.835260   -0.066050   -0.898170
  H      0.084650    1.262830   -0.900440
  H      0.084660    1.262870    0.900410

 Total Charge           Charge          ....    0
 Multiplicity           Mult            ....    1
 Number of Electrons    NEL             ....   26
 Basis Dimension        Dim             ....  188

ORBITAL ENERGIES
----------------

  NO   OCC          E(Eh)            E(eV)
   0   2.0000     -15.530330      -422.6018
   1   2.0000     -11.250230      -306.1343
   2   2.0000     -11.217786      -305.2515
   3   2.0000      -1.178088       -32.0574
   4   2.0000      -0.974643       -26.5214
   5   2.0000      -0.823865       -22.4185
   6   2.0000      -0.666662       -18.1408
   7   2.0000      -0.593896       -16.1607
   8   2.0000      -0.563771       -15.3410
   9   2.0000      -0.563309       -15.3284
  10   2.0000      -0.504740       -13.7347
  11   2.0000      -0.472139       -12.8476
  12   2.0000      -0.380649       -10.3580
  13   0.0000       0.138627         3.7722
  14   0.0000       0.176509         4.8030
  15   0.0000       0.181381         4.9356
  16   0.0000       0.182245         4.9591
  17   0.0000       0.218764         5.9529

MULLIKEN ATOMIC CHARGES
-----------------------
   0 C :   -0.287999
   1 C :   -0.037215
   2 N :   -0.360179
   3 H :    0.132469
   4 H :    0.132470
   5 H :    0.079379
   6 H :    0.085198
   7 H :    0.085200
   8 H :    0.085342
   9 H :    0.085335
Sum of atomic charges:    0.0000000

LOEWDIN ATOMIC CHARGES
----------------------
   0 C :    0.076580
   1 C :   -0.046704
   2 N :    0.312655
   3 H :   -0.105338
   4 H :   -0.105336
   5 H :   -0.029750
   6 H :   -0.027687
   7 H :   -0.027689
   8 H :   -0.023370
   9 H :   -0.023362

  Mayer bond orders larger than 0.1
B(  0-C ,  1-C ) :   0.9150 B(  0-C ,  5-H ) :   0.9842 B(  0-C ,  6-H ) :   0.9835
B(  0-C ,  7-H ) :   0.9835 B(  1-C ,  2-N ) :   0.9882 B(  1-C ,  8-H ) :   0.9917
B(  1-C ,  9-H ) :   0.9917 B(  2-N ,  3-H ) :   0.9969 B(  2-N ,  4-H ) :   0.9969

E(0)                                       ...   -134.292977667
E(0)                                       ...   -134.292977667
E(CORR)(strong-pairs)                      ...     -0.614358049
E(CORR)(weak-pairs)                        ...     -0.000349267
E(CORR)(corrected)                         ...     -0.614707316
E(TOT)                                     ...   -134.907684983
E(CCSD(T))                                 ...   -134.929603202
FINAL SINGLE POINT ENERGY      -134.929603201843

DIPOLE MOMENT
-------------
                                X             Y             Z
Electronic contribution:      1.67584       0.32526      -0.00004
Nuclear contribution   :     -2.06918      -0.65291       0.00007
                        -----------------------------------------
Total Dipole Moment    :     -0.39333      -0.32765       0.00003
                        -----------------------------------------
Magnitude (a.u.)       :      0.51193
Magnitude (Debye)      :      1.30121

Rotational constants in cm-1:     1.001828     0.305943     0.268659
Rotational constants in MHz : 30034.038715  9171.931287  8054.179956

                             ****ORCA TERMINATED NORMALLY****
TOTAL RUN TIME: 0 days 0 hours 1 minutes 21 seconds 108 msec
