                         Program Version 4.1.x  -  STABLE  -
|  1> ! RHF DLPNO-CCSD(T) cc-pVTZ RIJK cc-pVTZ/JK cc-pVTZ/C
|  2> ! KDIIS SOSCF TightSCF TightPNO
|  3>
|  4> %pal nprocs 8 end
|  5>
|  6> %maxcore 8000
|  7>
|  8> %scf maxiter 300
|  9>      shift shift 0.2 erroff 0.1 end
| 10> end
| 11>
| 12> * xyzfile 0 1 ethylphosphine_a.xyz
| 13>
| 14>
| 15>                          ****END OF INPUT****

CARTESIAN COORDINATES (ANGSTROEM)
---------------------------------
  C     -0.526870    0.656500    0.000010
  C     -1.678460   -0.353770    0.000000
  P      1.219020   -0.040150    0.000000
  H      1.030990   -0.999600    1.038180
  H      1.031010   -0.999660   -1.038120
  H     -0.592980    1.314860    0.875180
  H     -0.592780    1.314630   -0.875360
  H     -2.650060    0.155540   -0.000120
  H     -1.639640   -1.000020   -0.883630
  H     -1.639790   -0.999880    0.883740

 Total Charge           Charge          ....    0
 Multiplicity           Mult            ....    1
 Number of Electrons    NEL             ....   34
 Basis Dimension        Dim             ....  192

ORBITAL ENERGIES
----------------

  NO   OCC          E(Eh)            E(eV)
   0   2.0000     -79.935953     -2175.1679
   1   2.0000     -11.237037      -305.7753
   2   2.0000     -11.223842      -305.4163
   3   2.0000      -7.477936      -203.4850
   4   2.0000      -5.371546      -146.1672
   5   2.0000      -5.371368      -146.1624
   6   2.0000      -5.370360      -146.1349
   7   2.0000      -1.034885       -28.1606
   8   2.0000      -0.878985       -23.9184
   9   2.0000      -0.780263       -21.2320
  10   2.0000      -0.618721       -16.8363
  11   2.0000      -0.574036       -15.6203
  12   2.0000      -0.531898       -14.4737
  13   2.0000      -0.516112       -14.0441
  14   2.0000      -0.483806       -13.1650
  15   2.0000      -0.455678       -12.3996
  16   2.0000      -0.359496        -9.7824
  17   0.0000       0.125521         3.4156
  18   0.0000       0.165593         4.5060
  19   0.0000       0.168398         4.5823
  20   0.0000       0.172496         4.6939
  21   0.0000       0.193340         5.2610

MULLIKEN ATOMIC CHARGES
-----------------------
   0 C :   -0.227762
   1 C :   -0.268752
   2 P :    0.005402
   3 H :    0.000070
   4 H :    0.000080
   5 H :    0.100140
   6 H :    0.100121
   7 H :    0.101823
   8 H :    0.094440
   9 H :    0.094439
Sum of atomic charges:    0.0000000

LOEWDIN ATOMIC CHARGES
----------------------
   0 C :   -0.083967
   1 C :    0.084765
   2 P :    0.417596
   3 H :   -0.125197
   4 H :   -0.125194
   5 H :   -0.039486
   6 H :   -0.039485
   7 H :   -0.029008
   8 H :   -0.030012
   9 H :   -0.030012

  Mayer bond orders larger than 0.1
B(  0-C ,  1-C ) :   0.9438 B(  0-C ,  2-P ) :   0.9976 B(  0-C ,  5-H ) :   0.9711
B(  0-C ,  6-H ) :   0.9711 B(  1-C ,  7-H ) :   0.9792 B(  1-C ,  8-H ) :   0.9791
B(  1-C ,  9-H ) :   0.9791 B(  2-P ,  3-H ) :   0.9900 B(  2-P ,  4-H ) :   0.9900

E(0)                                       ...   -420.584625719
E(0)                                       ...   -420.584625719
E(CORR)(strong-pairs)                      ...     -0.566709450
E(CORR)(weak-pairs)                        ...     -0.000300094
E(CORR)(corrected)                         ...     -0.567009544
E(TOT)                                     ...   -421.151635263
E(CCSD(T))                                 ...   -421.173087532
FINAL SINGLE POINT ENERGY      -421.173087532076

DIPOLE MOMENT
-------------
                                X             Y             Z
Electronic contribution:      5.89343       1.15768       0.00009
Nuclear contribution   :     -6.39473      -1.21005      -0.00012
                        -----------------------------------------
Total Dipole Moment    :     -0.50131      -0.05237      -0.00004
                        -----------------------------------------
Magnitude (a.u.)       :      0.50403
Magnitude (Debye)      :      1.28115

Rotational constants in cm-1:     0.862962     0.163300     0.150269
Rotational constants in MHz : 25870.938973  4895.599851  4504.955638

                             ****ORCA TERMINATED NORMALLY****
TOTAL RUN TIME: 0 days 0 hours 1 minutes 35 seconds 404 msec
