                         Program Version 4.1.x  -  STABLE  -
|  1> ! RHF DLPNO-CCSD(T) cc-pVTZ RIJK cc-pVTZ/JK cc-pVTZ/C
|  2> ! KDIIS SOSCF TightSCF TightPNO
|  3>
|  4> %pal nprocs 8 end
|  5>
|  6> %maxcore 8000
|  7>
|  8> %scf maxiter 300
|  9>      shift shift 0.2 erroff 0.1 end
| 10> end
| 11>
| 12> * xyzfile 0 1 ethyl_methyl_ether_g.xyz
| 13>
| 14>
| 15>                          ****END OF INPUT****

CARTESIAN COORDINATES (ANGSTROEM)
---------------------------------
  C     -1.556990    0.517570   -0.088770
  C     -0.598980   -0.621480    0.258970
  O      0.659230   -0.538620   -0.403920
  C      1.533970    0.445930    0.117260
  H     -2.526790    0.349100    0.393540
  H     -1.183970    1.489250    0.250640
  H     -0.439970   -0.671300    1.349150
  H      2.485220    0.333870   -0.408180
  H      1.161630    1.467360   -0.045280
  H      1.702530    0.299090    1.195890
  H     -1.715230    0.567850   -1.170830
  H     -1.025310   -1.578410   -0.058330

 Total Charge           Charge          ....    0
 Multiplicity           Mult            ....    1
 Number of Electrons    NEL             ....   34
 Basis Dimension        Dim             ....  232

ORBITAL ENERGIES
----------------

  NO   OCC          E(Eh)            E(eV)
   0   2.0000     -20.548357      -559.1492
   1   2.0000     -11.273606      -306.7704
   2   2.0000     -11.267684      -306.6093
   3   2.0000     -11.217041      -305.2312
   4   2.0000      -1.362276       -37.0694
   5   2.0000      -1.017313       -27.6825
   6   2.0000      -0.924730       -25.1632
   7   2.0000      -0.819898       -22.3106
   8   2.0000      -0.657323       -17.8867
   9   2.0000      -0.654565       -17.8116
  10   2.0000      -0.621509       -16.9121
  11   2.0000      -0.566315       -15.4102
  12   2.0000      -0.548825       -14.9343
  13   2.0000      -0.523961       -14.2577
  14   2.0000      -0.499092       -13.5810
  15   2.0000      -0.462050       -12.5730
  16   2.0000      -0.416528       -11.3343
  17   0.0000       0.140297         3.8177
  18   0.0000       0.169806         4.6206
  19   0.0000       0.180928         4.9233
  20   0.0000       0.199376         5.4253
  21   0.0000       0.221051         6.0151

MULLIKEN ATOMIC CHARGES
-----------------------
   0 C :   -0.280973
   1 C :    0.052128
   2 O :   -0.370145
   3 C :   -0.056924
   4 H :    0.092900
   5 H :    0.084396
   6 H :    0.057053
   7 H :    0.108721
   8 H :    0.059573
   9 H :    0.057095
  10 H :    0.098419
  11 H :    0.097756
Sum of atomic charges:    0.0000000

LOEWDIN ATOMIC CHARGES
----------------------
   0 C :    0.100687
   1 C :   -0.063639
   2 O :    0.239093
   3 C :   -0.000010
   4 H :   -0.026009
   5 H :   -0.034167
   6 H :   -0.039897
   7 H :   -0.031561
   8 H :   -0.045415
   9 H :   -0.043419
  10 H :   -0.027017
  11 H :   -0.028648

  Mayer bond orders larger than 0.1
B(  0-C ,  1-C ) :   0.9566 B(  0-C ,  4-H ) :   0.9758 B(  0-C ,  5-H ) :   0.9793
B(  0-C , 10-H ) :   0.9765 B(  1-C ,  2-O ) :   0.9796 B(  1-C ,  6-H ) :   0.9787
B(  1-C , 11-H ) :   0.9860 B(  2-O ,  3-C ) :   0.9931 B(  3-C ,  7-H ) :   0.9841
B(  3-C ,  8-H ) :   0.9661 B(  3-C ,  9-H ) :   0.9702

E(0)                                       ...   -193.175591421
E(0)                                       ...   -193.175591421
E(CORR)(strong-pairs)                      ...     -0.813047236
E(CORR)(weak-pairs)                        ...     -0.000546876
E(CORR)(corrected)                         ...     -0.813594112
E(TOT)                                     ...   -193.989185533
E(CCSD(T))                                 ...   -194.018262931
FINAL SINGLE POINT ENERGY      -194.018262931002

DIPOLE MOMENT
-------------
                                X             Y             Z
Electronic contribution:      1.45201      -2.04664      -1.18026
Nuclear contribution   :     -1.62727       2.38894       1.59406
                        -----------------------------------------
Total Dipole Moment    :     -0.17526       0.34230       0.41380
                        -----------------------------------------
Magnitude (a.u.)       :      0.56490
Magnitude (Debye)      :      1.43586

Rotational constants in cm-1:     0.535565     0.168819     0.147798
Rotational constants in MHz : 16055.826548  5061.080531  4430.886756

                             ****ORCA TERMINATED NORMALLY****
TOTAL RUN TIME: 0 days 0 hours 1 minutes 57 seconds 463 msec
