                         Program Version 4.1.x  -  STABLE  -
|  1> ! RHF DLPNO-CCSD(T) cc-pVTZ RIJK cc-pVTZ/JK cc-pVTZ/C
|  2> ! KDIIS SOSCF TightSCF TightPNO
|  3>
|  4> %pal nprocs 8 end
|  5>
|  6> %maxcore 8000
|  7>
|  8> %scf maxiter 300
|  9>      shift shift 0.2 erroff 0.1 end
| 10> end
| 11>
| 12> * xyzfile 0 1 fluorocyclohexane_ax.xyz
| 13>
| 14>
| 15>                          ****END OF INPUT****

CARTESIAN COORDINATES (ANGSTROEM)
---------------------------------
  C      0.343420    1.273500    0.580480
  C      1.167930    0.000010    0.412510
  C      0.343430   -1.273500    0.580500
  C     -0.923840   -1.268440   -0.289540
  C     -1.761220   -0.000010   -0.057500
  C     -0.923860    1.268430   -0.289530
  F      1.722170    0.000000   -0.900630
  H      0.974170   -2.139740    0.351090
  H      0.067140   -1.351440    1.641770
  H     -1.518700   -2.164930   -0.078100
  H     -2.144630    0.000000    0.974060
  H     -2.638180   -0.000020   -0.716000
  H      2.030310    0.000010    1.089100
  H     -1.518730    2.164920   -0.078090
  H     -0.633680    1.324110   -1.346230
  H      0.067100    1.351450    1.641750
  H      0.974160    2.139760    0.351080
  H     -0.633660   -1.324100   -1.346240

 Total Charge           Charge          ....    0
 Multiplicity           Mult            ....    1
 Number of Electrons    NEL             ....   56
 Basis Dimension        Dim             ....  364

ORBITAL ENERGIES
----------------

  NO   OCC          E(Eh)            E(eV)
   0   2.0000     -26.255491      -714.4482
   1   2.0000     -11.305175      -307.6295
   2   2.0000     -11.226628      -305.4921
   3   2.0000     -11.226613      -305.4917
   4   2.0000     -11.221627      -305.3560
   5   2.0000     -11.221075      -305.3410
   6   2.0000     -11.220754      -305.3322
   7   2.0000      -1.560270       -42.4571
   8   2.0000      -1.115100       -30.3434
   9   2.0000      -1.010709       -27.5028
  10   2.0000      -1.005329       -27.3564
  11   2.0000      -0.843736       -22.9592
  12   2.0000      -0.837889       -22.8001
  13   2.0000      -0.755611       -20.5612
  14   2.0000      -0.693872       -18.8812
  15   2.0000      -0.658727       -17.9249
  16   2.0000      -0.648326       -17.6418
  17   2.0000      -0.625739       -17.0272
  18   2.0000      -0.592641       -16.1266
  19   2.0000      -0.580781       -15.8039
  20   2.0000      -0.541721       -14.7410
  21   2.0000      -0.531762       -14.4700
  22   2.0000      -0.518010       -14.0958
  23   2.0000      -0.516561       -14.0564
  24   2.0000      -0.484629       -13.1874
  25   2.0000      -0.462258       -12.5787
  26   2.0000      -0.437047       -11.8927
  27   2.0000      -0.436366       -11.8741
  28   0.0000       0.133928         3.6444
  29   0.0000       0.157885         4.2963
  30   0.0000       0.167654         4.5621
  31   0.0000       0.171707         4.6724
  32   0.0000       0.200893         5.4666

MULLIKEN ATOMIC CHARGES
-----------------------
   0 C :   -0.207022
   1 C :    0.221121
   2 C :   -0.207032
   3 C :   -0.194250
   4 C :   -0.199435
   5 C :   -0.194247
   6 F :   -0.351251
   7 H :    0.113056
   8 H :    0.090651
   9 H :    0.110047
  10 H :    0.084207
  11 H :    0.110691
  12 H :    0.105514
  13 H :    0.110045
  14 H :    0.102103
  15 H :    0.090644
  16 H :    0.113051
  17 H :    0.102107
Sum of atomic charges:    0.0000000

LOEWDIN ATOMIC CHARGES
----------------------
   0 C :    0.056416
   1 C :   -0.097811
   2 C :    0.056428
   3 C :    0.061687
   4 C :    0.057339
   5 C :    0.061680
   6 F :    0.064205
   7 H :   -0.020176
   8 H :   -0.019759
   9 H :   -0.026559
  10 H :   -0.028363
  11 H :   -0.025939
  12 H :   -0.027718
  13 H :   -0.026555
  14 H :   -0.022476
  15 H :   -0.019754
  16 H :   -0.020168
  17 H :   -0.022475

  Mayer bond orders larger than 0.1
B(  0-C ,  1-C ) :   0.9635 B(  0-C ,  5-C ) :   0.9460 B(  0-C , 15-H ) :   0.9771
B(  0-C , 16-H ) :   0.9896 B(  1-C ,  2-C ) :   0.9635 B(  1-C ,  6-F ) :   0.9000
B(  1-C , 12-H ) :   1.0066 B(  2-C ,  3-C ) :   0.9460 B(  2-C ,  7-H ) :   0.9896
B(  2-C ,  8-H ) :   0.9771 B(  3-C ,  4-C ) :   0.9498 B(  3-C ,  9-H ) :   0.9943
B(  3-C , 17-H ) :   0.9799 B(  4-C ,  5-C ) :   0.9498 B(  4-C , 10-H ) :   0.9852
B(  4-C , 11-H ) :   0.9938 B(  5-C , 13-H ) :   0.9943 B(  5-C , 14-H ) :   0.9799

E(0)                                       ...   -333.180247842
E(0)                                       ...   -333.180247842
E(CORR)(strong-pairs)                      ...     -1.336776696
E(CORR)(weak-pairs)                        ...     -0.001304502
E(CORR)(corrected)                         ...     -1.338081198
E(TOT)                                     ...   -334.518329041
E(CCSD(T))                                 ...   -334.568949263
FINAL SINGLE POINT ENERGY      -334.568949263460

DIPOLE MOMENT
-------------
                                X             Y             Z
Electronic contribution:      6.43708      -0.00003      -2.78827
Nuclear contribution   :     -6.87285       0.00003       3.47338
                        -----------------------------------------
Total Dipole Moment    :     -0.43578      -0.00000       0.68511
                        -----------------------------------------
Magnitude (a.u.)       :      0.81196
Magnitude (Debye)      :      2.06383

Rotational constants in cm-1:     0.118141     0.086189     0.064861
Rotational constants in MHz :  3541.764059  2583.885570  1944.469749

                             ****ORCA TERMINATED NORMALLY****
TOTAL RUN TIME: 0 days 0 hours 8 minutes 46 seconds 99 msec
