                         Program Version 4.1.x  -  STABLE  -
|  1> ! RHF DLPNO-CCSD(T) cc-pVTZ RIJK cc-pVTZ/JK cc-pVTZ/C
|  2> ! KDIIS SOSCF TightSCF TightPNO
|  3>
|  4> %pal nprocs 8 end
|  5>
|  6> %maxcore 8000
|  7>
|  8> %scf maxiter 300
|  9>      shift shift 0.2 erroff 0.1 end
| 10> end
| 11>
| 12> * xyzfile 0 1 fluoropropane_a.xyz
| 13>
| 14>
| 15>                          ****END OF INPUT****

CARTESIAN COORDINATES (ANGSTROEM)
---------------------------------
  C     -0.622610    0.492300   -0.000030
  F     -1.872820   -0.158280    0.000040
  C      0.499580   -0.530740   -0.000020
  C      1.880870    0.137640    0.000030
  H     -0.594840    1.127310    0.892990
  H     -0.594940    1.127120   -0.893180
  H      0.389200   -1.173740    0.881140
  H      0.389270   -1.173760   -0.881190
  H      2.675780   -0.614190   -0.000250
  H      2.021870    0.768520   -0.885200
  H      2.022040    0.768090    0.885530

 Total Charge           Charge          ....    0
 Multiplicity           Mult            ....    1
 Number of Electrons    NEL             ....   34
 Basis Dimension        Dim             ....  218

ORBITAL ENERGIES
----------------

  NO   OCC          E(Eh)            E(eV)
   0   2.0000     -26.262660      -714.6433
   1   2.0000     -11.305452      -307.6370
   2   2.0000     -11.232935      -305.6637
   3   2.0000     -11.228504      -305.5431
   4   2.0000      -1.568126       -42.6709
   5   2.0000      -1.067138       -29.0383
   6   2.0000      -0.932838       -25.3838
   7   2.0000      -0.825102       -22.4522
   8   2.0000      -0.696350       -18.9486
   9   2.0000      -0.672811       -18.3081
  10   2.0000      -0.651083       -17.7169
  11   2.0000      -0.611236       -16.6326
  12   2.0000      -0.567202       -15.4343
  13   2.0000      -0.527168       -14.3450
  14   2.0000      -0.516289       -14.0489
  15   2.0000      -0.485139       -13.2013
  16   2.0000      -0.483550       -13.1581
  17   0.0000       0.134483         3.6595
  18   0.0000       0.171139         4.6569
  19   0.0000       0.178206         4.8492
  20   0.0000       0.181888         4.9494
  21   0.0000       0.223337         6.0773

MULLIKEN ATOMIC CHARGES
-----------------------
   0 C :    0.191369
   1 F :   -0.324546
   2 C :   -0.173604
   3 C :   -0.301429
   4 H :    0.062849
   5 H :    0.062856
   6 H :    0.097685
   7 H :    0.097681
   8 H :    0.107793
   9 H :    0.089665
  10 H :    0.089681
Sum of atomic charges:    0.0000000

LOEWDIN ATOMIC CHARGES
----------------------
   0 C :   -0.030026
   1 F :    0.074937
   2 C :    0.041362
   3 C :    0.110191
   4 H :   -0.034254
   5 H :   -0.034259
   6 H :   -0.022600
   7 H :   -0.022592
   8 H :   -0.025165
   9 H :   -0.028796
  10 H :   -0.028799

  Mayer bond orders larger than 0.1
B(  0-C ,  1-F ) :   0.9334 B(  0-C ,  2-C ) :   0.9827 B(  0-C ,  4-H ) :   0.9759
B(  0-C ,  5-H ) :   0.9759 B(  2-C ,  3-C ) :   0.9406 B(  2-C ,  6-H ) :   0.9769
B(  2-C ,  7-H ) :   0.9769 B(  3-C ,  8-H ) :   0.9816 B(  3-C ,  9-H ) :   0.9795
B(  3-C , 10-H ) :   0.9795

E(0)                                       ...   -217.195988804
E(0)                                       ...   -217.195988804
E(CORR)(strong-pairs)                      ...     -0.818256326
E(CORR)(weak-pairs)                        ...     -0.000512992
E(CORR)(corrected)                         ...     -0.818769318
E(TOT)                                     ...   -218.014758121
E(CCSD(T))                                 ...   -218.042065901
FINAL SINGLE POINT ENERGY      -218.042065900612

DIPOLE MOMENT
-------------
                                X             Y             Z
Electronic contribution:     -7.56100      -0.72173       0.00019
Nuclear contribution   :      8.39019       1.01372      -0.00022
                        -----------------------------------------
Total Dipole Moment    :      0.82919       0.29199      -0.00003
                        -----------------------------------------
Magnitude (a.u.)       :      0.87910
Magnitude (Debye)      :      2.23449

Rotational constants in cm-1:     0.904499     0.123085     0.115392
Rotational constants in MHz : 27116.197405  3689.985666  3459.367447

                             ****ORCA TERMINATED NORMALLY****
TOTAL RUN TIME: 0 days 0 hours 3 minutes 13 seconds 19 msec
