                         Program Version 4.1.x  -  STABLE  -
|  1> ! RHF DLPNO-CCSD(T) cc-pVTZ RIJK cc-pVTZ/JK cc-pVTZ/C
|  2> ! KDIIS SOSCF TightSCF TightPNO
|  3>
|  4> %pal nprocs 8 end
|  5>
|  6> %maxcore 8000
|  7>
|  8> %scf maxiter 300
|  9>      shift shift 0.2 erroff 0.1 end
| 10> end
| 11>
| 12> * xyzfile 0 1 fluorocyclohexane_eq.xyz
| 13>
| 14>
| 15>                          ****END OF INPUT****

CARTESIAN COORDINATES (ANGSTROEM)
---------------------------------
  C      0.346320   -1.266110   -0.175090
  C      1.027130   -0.000000    0.328460
  C      0.346340    1.266110   -0.175080
  C     -1.145040    1.270050    0.209900
  C     -1.858270    0.000000   -0.282340
  C     -1.145060   -1.270040    0.209900
  F      2.378120   -0.000020   -0.102560
  H      0.858750    2.146360    0.228840
  H      0.451350    1.301700   -1.267640
  H     -1.628820    2.164900   -0.198340
  H     -1.880060    0.000000   -1.381480
  H     -2.902880    0.000020    0.051620
  H      1.068850   -0.000020    1.426140
  H     -1.628860   -2.164900   -0.198300
  H     -1.239960   -1.338090    1.303280
  H      0.451310   -1.301670   -1.267650
  H      0.858700   -2.146370    0.228840
  H     -1.239970    1.338120    1.303270

 Total Charge           Charge          ....    0
 Multiplicity           Mult            ....    1
 Number of Electrons    NEL             ....   56
 Basis Dimension        Dim             ....  364

ORBITAL ENERGIES
----------------

  NO   OCC          E(Eh)            E(eV)
   0   2.0000     -26.256442      -714.4741
   1   2.0000     -11.304052      -307.5989
   2   2.0000     -11.229580      -305.5724
   3   2.0000     -11.229534      -305.5711
   4   2.0000     -11.226549      -305.4899
   5   2.0000     -11.225890      -305.4720
   6   2.0000     -11.225874      -305.4716
   7   2.0000      -1.561639       -42.4944
   8   2.0000      -1.121611       -30.5206
   9   2.0000      -1.013278       -27.5727
  10   2.0000      -1.005084       -27.3497
  11   2.0000      -0.847396       -23.0588
  12   2.0000      -0.836279       -22.7563
  13   2.0000      -0.771338       -20.9892
  14   2.0000      -0.678198       -18.4547
  15   2.0000      -0.671180       -18.2637
  16   2.0000      -0.647292       -17.6137
  17   2.0000      -0.627023       -17.0622
  18   2.0000      -0.601165       -16.3585
  19   2.0000      -0.588704       -16.0194
  20   2.0000      -0.557201       -15.1622
  21   2.0000      -0.537302       -14.6207
  22   2.0000      -0.505332       -13.7508
  23   2.0000      -0.494193       -13.4477
  24   2.0000      -0.490851       -13.3567
  25   2.0000      -0.469445       -12.7742
  26   2.0000      -0.452210       -12.3053
  27   2.0000      -0.438582       -11.9344
  28   0.0000       0.134524         3.6606
  29   0.0000       0.148342         4.0366
  30   0.0000       0.160806         4.3757
  31   0.0000       0.173889         4.7318
  32   0.0000       0.203874         5.5477

MULLIKEN ATOMIC CHARGES
-----------------------
   0 C :   -0.211259
   1 C :    0.251372
   2 C :   -0.211260
   3 C :   -0.212962
   4 C :   -0.192040
   5 C :   -0.212957
   6 F :   -0.331052
   7 H :    0.116912
   8 H :    0.095095
   9 H :    0.114499
  10 H :    0.091400
  11 H :    0.112054
  12 H :    0.079985
  13 H :    0.114500
  14 H :    0.091849
  15 H :    0.095094
  16 H :    0.116912
  17 H :    0.091857
Sum of atomic charges:    0.0000000

LOEWDIN ATOMIC CHARGES
----------------------
   0 C :    0.058694
   1 C :   -0.108809
   2 C :    0.058687
   3 C :    0.062240
   4 C :    0.057682
   5 C :    0.062232
   6 F :    0.075079
   7 H :   -0.021770
   8 H :   -0.020741
   9 H :   -0.024185
  10 H :   -0.025582
  11 H :   -0.025629
  12 H :   -0.029029
  13 H :   -0.024184
  14 H :   -0.026083
  15 H :   -0.020745
  16 H :   -0.021772
  17 H :   -0.026086

  Mayer bond orders larger than 0.1
B(  0-C ,  1-C ) :   0.9680 B(  0-C ,  5-C ) :   0.9323 B(  0-C , 15-H ) :   0.9793
B(  0-C , 16-H ) :   0.9906 B(  1-C ,  2-C ) :   0.9680 B(  1-C ,  6-F ) :   0.9298
B(  1-C , 12-H ) :   0.9852 B(  2-C ,  3-C ) :   0.9323 B(  2-C ,  7-H ) :   0.9906
B(  2-C ,  8-H ) :   0.9793 B(  3-C ,  4-C ) :   0.9444 B(  3-C ,  9-H ) :   0.9903
B(  3-C , 17-H ) :   0.9833 B(  4-C ,  5-C ) :   0.9444 B(  4-C , 10-H ) :   0.9838
B(  4-C , 11-H ) :   0.9933 B(  5-C , 13-H ) :   0.9903 B(  5-C , 14-H ) :   0.9833

E(0)                                       ...   -333.180507813
E(0)                                       ...   -333.180507813
E(CORR)(strong-pairs)                      ...     -1.336605972
E(CORR)(weak-pairs)                        ...     -0.001329664
E(CORR)(corrected)                         ...     -1.337935636
E(TOT)                                     ...   -334.518443449
E(CCSD(T))                                 ...   -334.569065073
FINAL SINGLE POINT ENERGY      -334.569065072999

DIPOLE MOMENT
-------------
                                X             Y             Z
Electronic contribution:      8.52221      -0.00007      -0.15075
Nuclear contribution   :     -9.45161       0.00008       0.33961
                        -----------------------------------------
Total Dipole Moment    :     -0.92940       0.00002       0.18886
                        -----------------------------------------
Magnitude (a.u.)       :      0.94839
Magnitude (Debye)      :      2.41063

Rotational constants in cm-1:     0.142757     0.072109     0.052397
Rotational constants in MHz :  4279.753102  2161.785236  1570.829704

                             ****ORCA TERMINATED NORMALLY****
TOTAL RUN TIME: 0 days 0 hours 9 minutes 4 seconds 811 msec
