                         Program Version 4.1.x  -  STABLE  -
|  1> ! RHF DLPNO-CCSD(T) cc-pVTZ RIJK cc-pVTZ/JK cc-pVTZ/C
|  2> ! KDIIS SOSCF TightSCF TightPNO
|  3>
|  4> %pal nprocs 8 end
|  5>
|  6> %maxcore 8000
|  7>
|  8> %scf maxiter 300
|  9>      shift shift 0.2 erroff 0.1 end
| 10> end
| 11>
| 12> * xyzfile 0 1 fluoropropane_g.xyz
| 13>
| 14>
| 15>                          ****END OF INPUT****

CARTESIAN COORDINATES (ANGSTROEM)
---------------------------------
  C      0.794360    0.517840    0.303310
  F      1.421040   -0.654700   -0.171130
  C     -0.597390    0.647870   -0.289070
  C     -1.548300   -0.482470    0.119080
  H      1.437980    1.356340    0.016880
  H      0.766440    0.437570    1.396410
  H     -0.999050    1.617830    0.036050
  H     -0.509350    0.695660   -1.381560
  H     -2.537000   -0.343000   -0.329710
  H     -1.163820   -1.453900   -0.205300
  H     -1.676610   -0.517660    1.207490

 Total Charge           Charge          ....    0
 Multiplicity           Mult            ....    1
 Number of Electrons    NEL             ....   34
 Basis Dimension        Dim             ....  218

ORBITAL ENERGIES
----------------

  NO   OCC          E(Eh)            E(eV)
   0   2.0000     -26.262619      -714.6422
   1   2.0000     -11.305798      -307.6464
   2   2.0000     -11.233722      -305.6851
   3   2.0000     -11.219446      -305.2967
   4   2.0000      -1.567932       -42.6656
   5   2.0000      -1.063485       -28.9389
   6   2.0000      -0.935165       -25.4471
   7   2.0000      -0.817924       -22.2568
   8   2.0000      -0.690774       -18.7969
   9   2.0000      -0.685548       -18.6547
  10   2.0000      -0.644972       -17.5506
  11   2.0000      -0.597952       -16.2711
  12   2.0000      -0.569944       -15.5090
  13   2.0000      -0.540610       -14.7107
  14   2.0000      -0.496840       -13.5197
  15   2.0000      -0.485174       -13.2023
  16   2.0000      -0.483396       -13.1539
  17   0.0000       0.139438         3.7943
  18   0.0000       0.170175         4.6307
  19   0.0000       0.177383         4.8268
  20   0.0000       0.199396         5.4258
  21   0.0000       0.215330         5.8594

MULLIKEN ATOMIC CHARGES
-----------------------
   0 C :    0.176662
   1 F :   -0.332635
   2 C :   -0.172059
   3 C :   -0.289738
   4 H :    0.080378
   5 H :    0.059851
   6 H :    0.087000
   7 H :    0.096306
   8 H :    0.099723
   9 H :    0.110275
  10 H :    0.084237
Sum of atomic charges:   -0.0000000

LOEWDIN ATOMIC CHARGES
----------------------
   0 C :   -0.027684
   1 F :    0.071434
   2 C :    0.037889
   3 C :    0.109172
   4 H :   -0.032623
   5 H :   -0.033387
   6 H :   -0.019907
   7 H :   -0.021514
   8 H :   -0.028343
   9 H :   -0.025107
  10 H :   -0.029930

  Mayer bond orders larger than 0.1
B(  0-C ,  1-F ) :   0.9238 B(  0-C ,  2-C ) :   0.9761 B(  0-C ,  4-H ) :   0.9857
B(  0-C ,  5-H ) :   0.9799 B(  2-C ,  3-C ) :   0.9520 B(  2-C ,  6-H ) :   0.9721
B(  2-C ,  7-H ) :   0.9783 B(  3-C ,  8-H ) :   0.9854 B(  3-C ,  9-H ) :   0.9769
B(  3-C , 10-H ) :   0.9818

E(0)                                       ...   -217.196113113
E(0)                                       ...   -217.196113113
E(CORR)(strong-pairs)                      ...     -0.818485833
E(CORR)(weak-pairs)                        ...     -0.000515272
E(CORR)(corrected)                         ...     -0.819001105
E(TOT)                                     ...   -218.015114219
E(CCSD(T))                                 ...   -218.042452414
FINAL SINGLE POINT ENERGY      -218.042452413894

DIPOLE MOMENT
-------------
                                X             Y             Z
Electronic contribution:      5.80072      -1.84596      -0.71579
Nuclear contribution   :     -6.25803       2.50886       0.93515
                        -----------------------------------------
Total Dipole Moment    :     -0.45731       0.66290       0.21936
                        -----------------------------------------
Magnitude (a.u.)       :      0.83468
Magnitude (Debye)      :      2.12159

Rotational constants in cm-1:     0.483966     0.165797     0.140611
Rotational constants in MHz : 14508.930837  4970.454611  4215.414416

                             ****ORCA TERMINATED NORMALLY****
TOTAL RUN TIME: 0 days 0 hours 3 minutes 15 seconds 151 msec
