                         Program Version 4.1.x  -  STABLE  -
|  1> ! RHF DLPNO-CCSD(T) cc-pVTZ RIJK cc-pVTZ/JK cc-pVTZ/C
|  2> ! KDIIS SOSCF TightSCF TightPNO
|  3>
|  4> %pal nprocs 8 end
|  5>
|  6> %maxcore 8000
|  7>
|  8> %scf maxiter 300
|  9>      shift shift 0.2 erroff 0.1 end
| 10> end
| 11>
| 12> * xyzfile 0 1 formamidine_cis.xyz
| 13>
| 14>
| 15>                          ****END OF INPUT****

CARTESIAN COORDINATES (ANGSTROEM)
---------------------------------
  C     -0.122180    0.420600    0.000020
  N      1.116260   -0.177020   -0.000070
  N     -1.281000   -0.121070    0.000010
  H     -0.063370    1.511620   -0.000010
  H     -1.221960   -1.144240   -0.000010
  H      1.957440    0.376720    0.000220
  H      1.214170   -1.181020    0.000180

 Total Charge           Charge          ....    0
 Multiplicity           Mult            ....    1
 Number of Electrons    NEL             ....   24
 Basis Dimension        Dim             ....  146

ORBITAL ENERGIES
----------------

  NO   OCC          E(Eh)            E(eV)
   0   2.0000     -15.580288      -423.9612
   1   2.0000     -15.518441      -422.2782
   2   2.0000     -11.312565      -307.8305
   3   2.0000      -1.250812       -34.0363
   4   2.0000      -1.135625       -30.9019
   5   2.0000      -0.834578       -22.7100
   6   2.0000      -0.720560       -19.6074
   7   2.0000      -0.684932       -18.6379
   8   2.0000      -0.573445       -15.6042
   9   2.0000      -0.525592       -14.3021
  10   2.0000      -0.421362       -11.4658
  11   2.0000      -0.364360        -9.9147
  12   0.0000       0.132384         3.6024
  13   0.0000       0.155748         4.2381
  14   0.0000       0.196470         5.3462
  15   0.0000       0.197334         5.3697
  16   0.0000       0.221768         6.0346

MULLIKEN ATOMIC CHARGES
-----------------------
   0 C :    0.101986
   1 N :   -0.337510
   2 N :   -0.411998
   3 H :    0.139802
   4 H :    0.135226
   5 H :    0.190142
   6 H :    0.182352
Sum of atomic charges:    0.0000000

LOEWDIN ATOMIC CHARGES
----------------------
   0 C :   -0.190831
   1 N :    0.398572
   2 N :    0.129154
   3 H :   -0.028540
   4 H :   -0.135462
   5 H :   -0.085597
   6 H :   -0.087296

  Mayer bond orders larger than 0.1
B(  0-C ,  1-N ) :   1.1336 B(  0-C ,  2-N ) :   2.0097 B(  0-C ,  3-H ) :   0.9553
B(  1-N ,  5-H ) :   0.9615 B(  1-N ,  6-H ) :   0.9615 B(  2-N ,  4-H ) :   0.9719

E(0)                                       ...   -149.136707470
E(0)                                       ...   -149.136707470
E(CORR)(strong-pairs)                      ...     -0.598767464
E(CORR)(weak-pairs)                        ...     -0.000284320
E(CORR)(corrected)                         ...     -0.599051783
E(TOT)                                     ...   -149.735759253
E(CCSD(T))                                 ...   -149.760667575
FINAL SINGLE POINT ENERGY      -149.760667575368

DIPOLE MOMENT
-------------
                                X             Y             Z
Electronic contribution:     -0.44254       0.19987      -0.00005
Nuclear contribution   :      1.92882      -0.44880       0.00037
                        -----------------------------------------
Total Dipole Moment    :      1.48628      -0.24893       0.00033
                        -----------------------------------------
Magnitude (a.u.)       :      1.50698
Magnitude (Debye)      :      3.83044

Rotational constants in cm-1:     2.126302     0.355618     0.304664
Rotational constants in MHz : 63744.933858 10661.155157  9133.588970

                             ****ORCA TERMINATED NORMALLY****
TOTAL RUN TIME: 0 days 0 hours 1 minutes 19 seconds 483 msec
