                         Program Version 4.1.x  -  STABLE  -
|  1> ! RHF DLPNO-CCSD(T) cc-pVTZ RIJK cc-pVTZ/JK cc-pVTZ/C
|  2> ! KDIIS SOSCF TightSCF TightPNO
|  3>
|  4> %pal nprocs 8 end
|  5>
|  6> %maxcore 8000
|  7>
|  8> %scf maxiter 300
|  9>      shift shift 0.2 erroff 0.1 end
| 10> end
| 11>
| 12> * xyzfile 0 1 Formaldehyde_dimethylacetal_aa_dimethoxymethane.xyz
| 13>
| 14>
| 15>                          ****END OF INPUT****

CARTESIAN COORDINATES (ANGSTROEM)
---------------------------------
  C     -2.339300    0.194120   -0.000090
  O     -1.117520   -0.523350    0.000130
  C     -0.000000    0.316750    0.000110
  O      1.117530   -0.523350   -0.000100
  C      2.339290    0.194120   -0.000030
  H     -3.139200   -0.547950   -0.000110
  H     -2.436560    0.827810    0.894630
  H     -2.436370    0.827570   -0.895020
  H     -0.000100    0.964440   -0.900630
  H      0.000100    0.964230    0.900980
  H      3.139210   -0.547930   -0.000210
  H      2.436430    0.827840   -0.894740
  H      2.436510    0.827540    0.894900

 Total Charge           Charge          ....    0
 Multiplicity           Mult            ....    1
 Number of Electrons    NEL             ....   42
 Basis Dimension        Dim             ....  262

ORBITAL ENERGIES
----------------

  NO   OCC          E(Eh)            E(eV)
   0   2.0000     -20.559014      -559.4392
   1   2.0000     -20.559005      -559.4390
   2   2.0000     -11.330014      -308.3053
   3   2.0000     -11.276559      -306.8508
   4   2.0000     -11.276555      -306.8507
   5   2.0000      -1.413529       -38.4641
   6   2.0000      -1.347358       -36.6635
   7   2.0000      -0.980671       -26.6854
   8   2.0000      -0.912086       -24.8191
   9   2.0000      -0.860199       -23.4072
  10   2.0000      -0.697571       -18.9819
  11   2.0000      -0.677841       -18.4450
  12   2.0000      -0.676242       -18.4015
  13   2.0000      -0.623605       -16.9692
  14   2.0000      -0.591034       -16.0829
  15   2.0000      -0.565368       -15.3845
  16   2.0000      -0.553345       -15.0573
  17   2.0000      -0.503623       -13.7043
  18   2.0000      -0.484250       -13.1771
  19   2.0000      -0.447394       -12.1742
  20   2.0000      -0.415301       -11.3009
  21   0.0000       0.136759         3.7214
  22   0.0000       0.151190         4.1141
  23   0.0000       0.189740         5.1631
  24   0.0000       0.200216         5.4481
  25   0.0000       0.218373         5.9422

MULLIKEN ATOMIC CHARGES
-----------------------
   0 C :   -0.067922
   1 O :   -0.320880
   2 C :    0.294411
   3 O :   -0.320876
   4 C :   -0.067921
   5 H :    0.111972
   6 H :    0.060723
   7 H :    0.060718
   8 H :    0.008175
   9 H :    0.008199
  10 H :    0.111968
  11 H :    0.060717
  12 H :    0.060716
Sum of atomic charges:   -0.0000000

LOEWDIN ATOMIC CHARGES
----------------------
   0 C :    0.008157
   1 O :    0.262613
   2 C :   -0.211347
   3 O :    0.262619
   4 C :    0.008138
   5 H :   -0.028465
   6 H :   -0.041896
   7 H :   -0.041888
   8 H :   -0.052836
   9 H :   -0.052842
  10 H :   -0.028464
  11 H :   -0.041897
  12 H :   -0.041891

  Mayer bond orders larger than 0.1
B(  0-C ,  1-O ) :   0.9898 B(  0-C ,  5-H ) :   0.9821 B(  0-C ,  6-H ) :   0.9698
B(  0-C ,  7-H ) :   0.9698 B(  1-O ,  2-C ) :   1.0363 B(  2-C ,  3-O ) :   1.0363
B(  2-C ,  8-H ) :   0.9558 B(  2-C ,  9-H ) :   0.9558 B(  3-O ,  4-C ) :   0.9898
B(  4-C , 10-H ) :   0.9821 B(  4-C , 11-H ) :   0.9698 B(  4-C , 12-H ) :   0.9698

E(0)                                       ...   -268.049333438
E(0)                                       ...   -268.049333438
E(CORR)(strong-pairs)                      ...     -1.038765253
E(CORR)(weak-pairs)                        ...     -0.000781568
E(CORR)(corrected)                         ...     -1.039546821
E(TOT)                                     ...   -269.088880260
E(CCSD(T))                                 ...   -269.126251652
FINAL SINGLE POINT ENERGY      -269.126251651812

DIPOLE MOMENT
-------------
                                X             Y             Z
Electronic contribution:     -0.00006      -3.21026       0.00020
Nuclear contribution   :      0.00001       4.27807      -0.00020
                        -----------------------------------------
Total Dipole Moment    :     -0.00004       1.06780      -0.00001
                        -----------------------------------------
Magnitude (a.u.)       :      1.06780
Magnitude (Debye)      :      2.71414

Rotational constants in cm-1:     0.812031     0.076597     0.072941
Rotational constants in MHz : 24344.069545  2296.309029  2186.705297

                             ****ORCA TERMINATED NORMALLY****
TOTAL RUN TIME: 0 days 0 hours 2 minutes 41 seconds 642 msec
