                         Program Version 4.1.x  -  STABLE  -
|  1> ! RHF DLPNO-CCSD(T) cc-pVTZ RIJK cc-pVTZ/JK cc-pVTZ/C
|  2> ! KDIIS SOSCF TightSCF TightPNO
|  3>
|  4> %pal nprocs 8 end
|  5>
|  6> %maxcore 8000
|  7>
|  8> %scf maxiter 300
|  9>      shift shift 0.2 erroff 0.1 end
| 10> end
| 11>
| 12> * xyzfile 0 1 Formaldehyde_dimethylacetal_g_ecl_dimethoxymethane.xyz
| 13>
| 14>
| 15>                          ****END OF INPUT****

CARTESIAN COORDINATES (ANGSTROEM)
---------------------------------
  C      1.621610    0.853630    0.011940
  O      1.317170   -0.528610   -0.127670
  C      0.030490   -0.885600    0.291790
  O     -0.982860   -0.319260   -0.517700
  C     -1.873600    0.577040    0.134100
  H      2.670650    0.973250   -0.264950
  H      1.001440    1.468210   -0.651130
  H      1.483850    1.185410    1.052850
  H     -0.011960   -1.973450    0.190080
  H     -0.128190   -0.591170    1.344520
  H     -2.548860    0.958900   -0.634590
  H     -2.469150    0.068710    0.905230
  H     -1.343160    1.422710    0.593910

 Total Charge           Charge          ....    0
 Multiplicity           Mult            ....    1
 Number of Electrons    NEL             ....   42
 Basis Dimension        Dim             ....  262

ORBITAL ENERGIES
----------------

  NO   OCC          E(Eh)            E(eV)
   0   2.0000     -20.558095      -559.4142
   1   2.0000     -20.557786      -559.4058
   2   2.0000     -11.327342      -308.2327
   3   2.0000     -11.278679      -306.9085
   4   2.0000     -11.271711      -306.7189
   5   2.0000      -1.406604       -38.2757
   6   2.0000      -1.341692       -36.5093
   7   2.0000      -0.983223       -26.7548
   8   2.0000      -0.923140       -25.1199
   9   2.0000      -0.847466       -23.0607
  10   2.0000      -0.688535       -18.7360
  11   2.0000      -0.683938       -18.6109
  12   2.0000      -0.672916       -18.3110
  13   2.0000      -0.607429       -16.5290
  14   2.0000      -0.598552       -16.2874
  15   2.0000      -0.587375       -15.9833
  16   2.0000      -0.540854       -14.7174
  17   2.0000      -0.494245       -13.4491
  18   2.0000      -0.479294       -13.0423
  19   2.0000      -0.444348       -12.0913
  20   2.0000      -0.428817       -11.6687
  21   0.0000       0.137277         3.7355
  22   0.0000       0.169019         4.5992
  23   0.0000       0.180976         4.9246
  24   0.0000       0.198605         5.4043
  25   0.0000       0.211501         5.7552

MULLIKEN ATOMIC CHARGES
-----------------------
   0 C :   -0.074299
   1 O :   -0.348217
   2 C :    0.225418
   3 O :   -0.374348
   4 C :   -0.064922
   5 H :    0.116328
   6 H :    0.083648
   7 H :    0.053688
   8 H :    0.101900
   9 H :    0.034195
  10 H :    0.109798
  11 H :    0.076412
  12 H :    0.060400
Sum of atomic charges:   -0.0000000

LOEWDIN ATOMIC CHARGES
----------------------
   0 C :    0.011775
   1 O :    0.253009
   2 C :   -0.192187
   3 O :    0.239255
   4 C :    0.002577
   5 H :   -0.030248
   6 H :   -0.040992
   7 H :   -0.044628
   8 H :   -0.034165
   9 H :   -0.049224
  10 H :   -0.029130
  11 H :   -0.041490
  12 H :   -0.044552

  Mayer bond orders larger than 0.1
B(  0-C ,  1-O ) :   0.9738 B(  0-C ,  5-H ) :   0.9829 B(  0-C ,  6-H ) :   0.9687
B(  0-C ,  7-H ) :   0.9672 B(  1-O ,  2-C ) :   1.0549 B(  2-C ,  3-O ) :   0.9839
B(  2-C ,  8-H ) :   0.9783 B(  2-C ,  9-H ) :   0.9797 B(  3-O ,  4-C ) :   0.9769
B(  4-C , 10-H ) :   0.9816 B(  4-C , 11-H ) :   0.9772 B(  4-C , 12-H ) :   0.9662

E(0)                                       ...   -268.050645490
E(0)                                       ...   -268.050645490
E(CORR)(strong-pairs)                      ...     -1.040518460
E(CORR)(weak-pairs)                        ...     -0.000784916
E(CORR)(corrected)                         ...     -1.041303376
E(TOT)                                     ...   -269.091948866
E(CCSD(T))                                 ...   -269.129701298
FINAL SINGLE POINT ENERGY      -269.129701298384

DIPOLE MOMENT
-------------
                                X             Y             Z
Electronic contribution:      1.05317      -3.04698      -1.90784
Nuclear contribution   :     -1.38916       3.62722       2.61817
                        -----------------------------------------
Total Dipole Moment    :     -0.33599       0.58024       0.71033
                        -----------------------------------------
Magnitude (a.u.)       :      0.97680
Magnitude (Debye)      :      2.48282

Rotational constants in cm-1:     0.332869     0.110423     0.092707
Rotational constants in MHz :  9979.171834  3310.410502  2779.277188

                             ****ORCA TERMINATED NORMALLY****
TOTAL RUN TIME: 0 days 0 hours 2 minutes 51 seconds 482 msec
