                         Program Version 4.1.x  -  STABLE  -
|  1> ! RHF DLPNO-CCSD(T) cc-pVTZ RIJK cc-pVTZ/JK cc-pVTZ/C
|  2> ! KDIIS SOSCF TightSCF TightPNO
|  3>
|  4> %pal nprocs 8 end
|  5>
|  6> %maxcore 8000
|  7>
|  8> %scf maxiter 300
|  9>      shift shift 0.2 erroff 0.1 end
| 10> end
| 11>
| 12> * xyzfile 0 1 formic_acid_Z.xyz
| 13>
| 14>
| 15>                          ****END OF INPUT****

CARTESIAN COORDINATES (ANGSTROEM)
---------------------------------
  C      0.000000    0.423580    0.000000
  O     -1.034520   -0.439550    0.000000
  O      1.165020    0.107680    0.000000
  H     -0.375010    1.455820    0.000000
  H     -0.668980   -1.342350    0.000000

 Total Charge           Charge          ....    0
 Multiplicity           Mult            ....    1
 Number of Electrons    NEL             ....   24
 Basis Dimension        Dim             ....  118

ORBITAL ENERGIES
----------------

  NO   OCC          E(Eh)            E(eV)
   0   2.0000     -20.625212      -561.2405
   1   2.0000     -20.563136      -559.5514
   2   2.0000     -11.395997      -310.1008
   3   2.0000      -1.471441       -40.0399
   4   2.0000      -1.372030       -37.3348
   5   2.0000      -0.893987       -24.3266
   6   2.0000      -0.721591       -19.6355
   7   2.0000      -0.709831       -19.3155
   8   2.0000      -0.634224       -17.2581
   9   2.0000      -0.601239       -16.3605
  10   2.0000      -0.493476       -13.4282
  11   2.0000      -0.471732       -12.8365
  12   0.0000       0.146765         3.9937
  13   0.0000       0.158632         4.3166
  14   0.0000       0.168940         4.5971
  15   0.0000       0.302768         8.2387
  16   0.0000       0.342351         9.3158

MULLIKEN ATOMIC CHARGES
-----------------------
   0 C :    0.367429
   1 O :   -0.332048
   2 O :   -0.391107
   3 H :    0.098297
   4 H :    0.257429
Sum of atomic charges:   -0.0000000

LOEWDIN ATOMIC CHARGES
----------------------
   0 C :   -0.312702
   1 O :    0.385090
   2 O :    0.107786
   3 H :   -0.042392
   4 H :   -0.137783

  Mayer bond orders larger than 0.1
B(  0-C ,  1-O ) :   1.1771 B(  0-C ,  2-O ) :   2.0596 B(  0-C ,  3-H ) :   0.9392
B(  1-O ,  4-H ) :   0.9435

E(0)                                       ...   -188.839793241
E(0)                                       ...   -188.839793241
E(CORR)(strong-pairs)                      ...     -0.635389249
E(CORR)(weak-pairs)                        ...     -0.000261733
E(CORR)(corrected)                         ...     -0.635650982
E(TOT)                                     ...   -189.475444223
E(CCSD(T))                                 ...   -189.500407168
FINAL SINGLE POINT ENERGY      -189.500407167941

DIPOLE MOMENT
-------------
                                X             Y             Z
Electronic contribution:      0.33814      -0.15542       0.00000
Nuclear contribution   :     -1.02040       0.10600       0.00000
                        -----------------------------------------
Total Dipole Moment    :     -0.68225      -0.04941       0.00000
                        -----------------------------------------
Magnitude (a.u.)       :      0.68404
Magnitude (Debye)      :      1.73870

Rotational constants in cm-1:     2.571499     0.399133     0.345506
Rotational constants in MHz : 77091.612757 11965.706357 10357.998758

                             ****ORCA TERMINATED NORMALLY****
TOTAL RUN TIME: 0 days 0 hours 0 minutes 51 seconds 330 msec
