                         Program Version 4.1.x  -  STABLE  -
|  1> ! RHF DLPNO-CCSD(T) cc-pVTZ RIJK cc-pVTZ/JK cc-pVTZ/C
|  2> ! KDIIS SOSCF TightSCF TightPNO
|  3>
|  4> %pal nprocs 8 end
|  5>
|  6> %maxcore 8000
|  7>
|  8> %scf maxiter 300
|  9>      shift shift 0.2 erroff 0.1 end
| 10> end
| 11>
| 12> * xyzfile 0 1 formamidine_t.xyz
| 13>
| 14>
| 15>                          ****END OF INPUT****

CARTESIAN COORDINATES (ANGSTROEM)
---------------------------------
  C      0.000000    0.411170    0.000000
  N     -1.036080   -0.478590    0.000000
  N      1.223920    0.032920    0.000000
  H     -0.335660    1.456290    0.000000
  H      1.848040    0.837160    0.000000
  H     -1.993710   -0.173420    0.000000
  H     -0.833530   -1.467340    0.000000

 Total Charge           Charge          ....    0
 Multiplicity           Mult            ....    1
 Number of Electrons    NEL             ....   24
 Basis Dimension        Dim             ....  146

ORBITAL ENERGIES
----------------

  NO   OCC          E(Eh)            E(eV)
   0   2.0000     -15.570326      -423.6901
   1   2.0000     -15.515035      -422.1856
   2   2.0000     -11.311876      -307.8118
   3   2.0000      -1.248629       -33.9769
   4   2.0000      -1.132273       -30.8107
   5   2.0000      -0.823561       -22.4102
   6   2.0000      -0.737557       -20.0699
   7   2.0000      -0.630246       -17.1499
   8   2.0000      -0.615917       -16.7599
   9   2.0000      -0.522217       -14.2103
  10   2.0000      -0.415795       -11.3143
  11   2.0000      -0.357667        -9.7326
  12   0.0000       0.137414         3.7392
  13   0.0000       0.162069         4.4101
  14   0.0000       0.192948         5.2504
  15   0.0000       0.194734         5.2990
  16   0.0000       0.222982         6.0676

MULLIKEN ATOMIC CHARGES
-----------------------
   0 C :    0.084020
   1 N :   -0.313566
   2 N :   -0.392374
   3 H :    0.089686
   4 H :    0.152999
   5 H :    0.186883
   6 H :    0.192353
Sum of atomic charges:   -0.0000000

LOEWDIN ATOMIC CHARGES
----------------------
   0 C :   -0.188632
   1 N :    0.410018
   2 N :    0.125373
   3 H :   -0.044528
   4 H :   -0.133107
   5 H :   -0.091328
   6 H :   -0.077796

  Mayer bond orders larger than 0.1
B(  0-C ,  1-N ) :   1.1418 B(  0-C ,  2-N ) :   1.9896 B(  0-C ,  3-H ) :   0.9683
B(  1-N ,  5-H ) :   0.9726 B(  1-N ,  6-H ) :   0.9437 B(  2-N ,  4-H ) :   0.9665

E(0)                                       ...   -149.139572720
E(0)                                       ...   -149.139572720
E(CORR)(strong-pairs)                      ...     -0.598461396
E(CORR)(weak-pairs)                        ...     -0.000282512
E(CORR)(corrected)                         ...     -0.598743908
E(TOT)                                     ...   -149.738316628
E(CCSD(T))                                 ...   -149.763119482
FINAL SINGLE POINT ENERGY      -149.763119482359

DIPOLE MOMENT
-------------
                                X             Y             Z
Electronic contribution:      0.25899      -0.14731      -0.00000
Nuclear contribution   :     -1.34408       0.66507       0.00000
                        -----------------------------------------
Total Dipole Moment    :     -1.08509       0.51776      -0.00000
                        -----------------------------------------
Magnitude (a.u.)       :      1.20229
Magnitude (Debye)      :      3.05598

Rotational constants in cm-1:     2.255927     0.358220     0.309133
Rotational constants in MHz : 67630.996781 10739.174471  9267.570333

                             ****ORCA TERMINATED NORMALLY****
TOTAL RUN TIME: 0 days 0 hours 1 minutes 19 seconds 848 msec
