                         Program Version 4.1.x  -  STABLE  -
|  1> ! RHF DLPNO-CCSD(T) cc-pVTZ RIJK cc-pVTZ/JK cc-pVTZ/C
|  2> ! KDIIS SOSCF TightSCF TightPNO
|  3>
|  4> %pal nprocs 8 end
|  5>
|  6> %maxcore 8000
|  7>
|  8> %scf maxiter 300
|  9>      shift shift 0.2 erroff 0.1 end
| 10> end
| 11>
| 12> * xyzfile 0 1 Formaldehyde_dimethylacetal_g_g__dimethoxymethane.xyz
| 13>
| 14>
| 15>                          ****END OF INPUT****

CARTESIAN COORDINATES (ANGSTROEM)
---------------------------------
  C      1.838260   -0.559510    0.232840
  O      0.982860    0.159250   -0.652720
  C      0.000010    0.924680    0.000010
  O     -0.982850    0.159250    0.652710
  C     -1.838270   -0.559500   -0.232840
  H      2.581540   -1.061630   -0.389260
  H      2.348610    0.126130    0.925050
  H      1.282690   -1.304010    0.814680
  H      0.447400    1.548500    0.785450
  H     -0.447380    1.548490   -0.785450
  H     -2.581480   -1.061720    0.389260
  H     -2.348720    0.126160   -0.924950
  H     -1.282700   -1.303920   -0.814780

 Total Charge           Charge          ....    0
 Multiplicity           Mult            ....    1
 Number of Electrons    NEL             ....   42
 Basis Dimension        Dim             ....  262

ORBITAL ENERGIES
----------------

  NO   OCC          E(Eh)            E(eV)
   0   2.0000     -20.559149      -559.4429
   1   2.0000     -20.559131      -559.4424
   2   2.0000     -11.325595      -308.1851
   3   2.0000     -11.270677      -306.6907
   4   2.0000     -11.270676      -306.6907
   5   2.0000      -1.407895       -38.3108
   6   2.0000      -1.340550       -36.4782
   7   2.0000      -0.977373       -26.5957
   8   2.0000      -0.929354       -25.2890
   9   2.0000      -0.837427       -22.7875
  10   2.0000      -0.688313       -18.7300
  11   2.0000      -0.685378       -18.6501
  12   2.0000      -0.670193       -18.2369
  13   2.0000      -0.607420       -16.5287
  14   2.0000      -0.599121       -16.3029
  15   2.0000      -0.571402       -15.5486
  16   2.0000      -0.528118       -14.3708
  17   2.0000      -0.520282       -14.1576
  18   2.0000      -0.462641       -12.5891
  19   2.0000      -0.440902       -11.9976
  20   2.0000      -0.439830       -11.9684
  21   0.0000       0.143709         3.9105
  22   0.0000       0.166272         4.5245
  23   0.0000       0.184167         5.0114
  24   0.0000       0.201347         5.4789
  25   0.0000       0.221812         6.0358

MULLIKEN ATOMIC CHARGES
-----------------------
   0 C :   -0.069616
   1 O :   -0.373083
   2 C :    0.255082
   3 O :   -0.373084
   4 C :   -0.069621
   5 H :    0.102821
   6 H :    0.064395
   7 H :    0.081523
   8 H :    0.066425
   9 H :    0.066414
  10 H :    0.102820
  11 H :    0.064401
  12 H :    0.081524
Sum of atomic charges:   -0.0000000

LOEWDIN ATOMIC CHARGES
----------------------
   0 C :    0.015274
   1 O :    0.240945
   2 C :   -0.203221
   3 O :    0.240949
   4 C :    0.015278
   5 H :   -0.032445
   6 H :   -0.041310
   7 H :   -0.041008
   8 H :   -0.039850
   9 H :   -0.039848
  10 H :   -0.032445
  11 H :   -0.041312
  12 H :   -0.041007

  Mayer bond orders larger than 0.1
B(  0-C ,  1-O ) :   0.9712 B(  0-C ,  5-H ) :   0.9831 B(  0-C ,  6-H ) :   0.9755
B(  0-C ,  7-H ) :   0.9684 B(  1-O ,  2-C ) :   1.0118 B(  2-C ,  3-O ) :   1.0118
B(  2-C ,  8-H ) :   0.9797 B(  2-C ,  9-H ) :   0.9797 B(  3-O ,  4-C ) :   0.9712
B(  4-C , 10-H ) :   0.9831 B(  4-C , 11-H ) :   0.9755 B(  4-C , 12-H ) :   0.9684

E(0)                                       ...   -268.056593842
E(0)                                       ...   -268.056593842
E(CORR)(strong-pairs)                      ...     -1.040511873
E(CORR)(weak-pairs)                        ...     -0.000769706
E(CORR)(corrected)                         ...     -1.041281580
E(TOT)                                     ...   -269.097875421
E(CCSD(T))                                 ...   -269.135606107
FINAL SINGLE POINT ENERGY      -269.135606106752

DIPOLE MOMENT
-------------
                                X             Y             Z
Electronic contribution:      0.00004       1.35465       0.00001
Nuclear contribution   :     -0.00005      -1.42736       0.00000
                        -----------------------------------------
Total Dipole Moment    :     -0.00001      -0.07271       0.00001
                        -----------------------------------------
Magnitude (a.u.)       :      0.07271
Magnitude (Debye)      :      0.18483

Rotational constants in cm-1:     0.347745     0.105420     0.099327
Rotational constants in MHz : 10425.125774  3160.419969  2977.762496

                             ****ORCA TERMINATED NORMALLY****
TOTAL RUN TIME: 0 days 0 hours 2 minutes 42 seconds 829 msec
