                         Program Version 4.1.x  -  STABLE  -
|  1> ! RHF DLPNO-CCSD(T) cc-pVTZ RIJK cc-pVTZ/JK cc-pVTZ/C
|  2> ! KDIIS SOSCF TightSCF TightPNO
|  3>
|  4> %pal nprocs 8 end
|  5>
|  6> %maxcore 8000
|  7>
|  8> %scf maxiter 300
|  9>      shift shift 0.2 erroff 0.1 end
| 10> end
| 11>
| 12> * xyzfile 0 1 formic_acid_E.xyz
| 13>
| 14>
| 15>                          ****END OF INPUT****

CARTESIAN COORDINATES (ANGSTROEM)
---------------------------------
  C      0.000000    0.387270    0.000000
  O     -0.901470   -0.622960    0.000000
  O      1.184070    0.191990    0.000000
  H     -0.457070    1.393420    0.000000
  H     -1.803740   -0.269240    0.000000

 Total Charge           Charge          ....    0
 Multiplicity           Mult            ....    1
 Number of Electrons    NEL             ....   24
 Basis Dimension        Dim             ....  118

ORBITAL ENERGIES
----------------

  NO   OCC          E(Eh)            E(eV)
   0   2.0000     -20.625139      -561.2386
   1   2.0000     -20.559310      -559.4473
   2   2.0000     -11.395595      -310.0899
   3   2.0000      -1.466504       -39.9056
   4   2.0000      -1.374857       -37.4118
   5   2.0000      -0.867799       -23.6140
   6   2.0000      -0.789399       -21.4806
   7   2.0000      -0.667186       -18.1550
   8   2.0000      -0.631779       -17.1916
   9   2.0000      -0.597481       -16.2583
  10   2.0000      -0.490362       -13.3434
  11   2.0000      -0.466781       -12.7017
  12   0.0000       0.117477         3.1967
  13   0.0000       0.158025         4.3001
  14   0.0000       0.174505         4.7485
  15   0.0000       0.303055         8.2465
  16   0.0000       0.354921         9.6579

MULLIKEN ATOMIC CHARGES
-----------------------
   0 C :    0.352801
   1 O :   -0.285386
   2 O :   -0.358397
   3 H :    0.060209
   4 H :    0.230773
Sum of atomic charges:    0.0000000

LOEWDIN ATOMIC CHARGES
----------------------
   0 C :   -0.319781
   1 O :    0.394926
   2 O :    0.136725
   3 H :   -0.057219
   4 H :   -0.154651

  Mayer bond orders larger than 0.1
B(  0-C ,  1-O ) :   1.1409 B(  0-C ,  2-O ) :   2.1044 B(  0-C ,  3-H ) :   0.9531
B(  1-O ,  4-H ) :   0.9729

E(0)                                       ...   -188.831879794
E(0)                                       ...   -188.831879794
E(CORR)(strong-pairs)                      ...     -0.636130413
E(CORR)(weak-pairs)                        ...     -0.000265113
E(CORR)(corrected)                         ...     -0.636395526
E(TOT)                                     ...   -189.468275320
E(CCSD(T))                                 ...   -189.493286166
FINAL SINGLE POINT ENERGY      -189.493286165989

DIPOLE MOMENT
-------------
                                X             Y             Z
Electronic contribution:      0.63478      -0.36631      -0.00000
Nuclear contribution   :     -2.20972       1.09429       0.00000
                        -----------------------------------------
Total Dipole Moment    :     -1.57494       0.72797      -0.00000
                        -----------------------------------------
Magnitude (a.u.)       :      1.73504
Magnitude (Debye)      :      4.41013

Rotational constants in cm-1:     2.883568     0.386904     0.341132
Rotational constants in MHz : 86447.195010 11599.078981 10226.883713

                             ****ORCA TERMINATED NORMALLY****
TOTAL RUN TIME: 0 days 0 hours 0 minutes 44 seconds 377 msec
