                         Program Version 4.1.x  -  STABLE  -
|  1> ! RHF DLPNO-CCSD(T) cc-pVTZ RIJK cc-pVTZ/JK cc-pVTZ/C
|  2> ! KDIIS SOSCF TightSCF TightPNO
|  3>
|  4> %pal nprocs 8 end
|  5>
|  6> %maxcore 8000
|  7>
|  8> %scf maxiter 300
|  9>      shift shift 0.2 erroff 0.1 end
| 10> end
| 11>
| 12> * xyzfile 0 1 Formaldehyde_dimethylacetal_ag_dimethoxymethane.xyz
| 13>
| 14>
| 15>                          ****END OF INPUT****

CARTESIAN COORDINATES (ANGSTROEM)
---------------------------------
  C     -1.938130   -0.616170    0.133910
  O     -1.269390    0.575770   -0.275100
  C      0.025950    0.696450    0.203880
  O      0.854390   -0.294560   -0.380670
  C      2.185500   -0.252840    0.103070
  H     -2.966560   -0.530270   -0.221190
  H     -1.469470   -1.504100   -0.302200
  H     -1.939160   -0.705900    1.230390
  H      0.370980    1.701210   -0.078000
  H      0.055300    0.585820    1.306550
  H      2.732980   -1.051710   -0.400450
  H      2.668730    0.709670   -0.124900
  H      2.227200   -0.418990    1.190800

 Total Charge           Charge          ....    0
 Multiplicity           Mult            ....    1
 Number of Electrons    NEL             ....   42
 Basis Dimension        Dim             ....  262

ORBITAL ENERGIES
----------------

  NO   OCC          E(Eh)            E(eV)
   0   2.0000     -20.559425      -559.4504
   1   2.0000     -20.557857      -559.4077
   2   2.0000     -11.327786      -308.2447
   3   2.0000     -11.277095      -306.8653
   4   2.0000     -11.268850      -306.6410
   5   2.0000      -1.410655       -38.3859
   6   2.0000      -1.343257       -36.5519
   7   2.0000      -0.977471       -26.5983
   8   2.0000      -0.923043       -25.1173
   9   2.0000      -0.847154       -23.0522
  10   2.0000      -0.692250       -18.8371
  11   2.0000      -0.681414       -18.5422
  12   2.0000      -0.673503       -18.3270
  13   2.0000      -0.614701       -16.7269
  14   2.0000      -0.587937       -15.9986
  15   2.0000      -0.582473       -15.8499
  16   2.0000      -0.535659       -14.5760
  17   2.0000      -0.498375       -13.5615
  18   2.0000      -0.488509       -13.2930
  19   2.0000      -0.439631       -11.9630
  20   2.0000      -0.425660       -11.5828
  21   0.0000       0.139121         3.7857
  22   0.0000       0.162732         4.4282
  23   0.0000       0.184686         5.0256
  24   0.0000       0.198524         5.4021
  25   0.0000       0.218597         5.9483

MULLIKEN ATOMIC CHARGES
-----------------------
   0 C :   -0.056626
   1 O :   -0.339758
   2 C :    0.220749
   3 O :   -0.356702
   4 C :   -0.055289
   5 H :    0.104395
   6 H :    0.089659
   7 H :    0.053018
   8 H :    0.085296
   9 H :    0.023883
  10 H :    0.110416
  11 H :    0.061695
  12 H :    0.059263
Sum of atomic charges:   -0.0000000

LOEWDIN ATOMIC CHARGES
----------------------
   0 C :    0.022344
   1 O :    0.263627
   2 C :   -0.208530
   3 O :    0.237901
   4 C :    0.003692
   5 H :   -0.031900
   6 H :   -0.039710
   7 H :   -0.043163
   8 H :   -0.038558
   9 H :   -0.052300
  10 H :   -0.029696
  11 H :   -0.040782
  12 H :   -0.042927

  Mayer bond orders larger than 0.1
B(  0-C ,  1-O ) :   0.9597 B(  0-C ,  5-H ) :   0.9833 B(  0-C ,  6-H ) :   0.9702
B(  0-C ,  7-H ) :   0.9709 B(  1-O ,  2-C ) :   1.0924 B(  2-C ,  3-O ) :   0.9831
B(  2-C ,  8-H ) :   0.9737 B(  2-C ,  9-H ) :   0.9685 B(  3-O ,  4-C ) :   0.9859
B(  4-C , 10-H ) :   0.9821 B(  4-C , 11-H ) :   0.9689 B(  4-C , 12-H ) :   0.9691

E(0)                                       ...   -268.053461635
E(0)                                       ...   -268.053461635
E(CORR)(strong-pairs)                      ...     -1.039562380
E(CORR)(weak-pairs)                        ...     -0.000765322
E(CORR)(corrected)                         ...     -1.040327702
E(TOT)                                     ...   -269.093789337
E(CCSD(T))                                 ...   -269.131343425
FINAL SINGLE POINT ENERGY      -269.131343424802

DIPOLE MOMENT
-------------
                                X             Y             Z
Electronic contribution:     -1.33103       1.13576      -2.01539
Nuclear contribution   :      1.73470      -1.25411       2.68545
                        -----------------------------------------
Total Dipole Moment    :      0.40367      -0.11835       0.67005
                        -----------------------------------------
Magnitude (a.u.)       :      0.79116
Magnitude (Debye)      :      2.01096

Rotational constants in cm-1:     0.479700     0.091623     0.084052
Rotational constants in MHz : 14381.045139  2746.795403  2519.813059

                             ****ORCA TERMINATED NORMALLY****
TOTAL RUN TIME: 0 days 0 hours 2 minutes 43 seconds 771 msec
