                         Program Version 4.1.x  -  STABLE  -
|  1> ! RHF DLPNO-CCSD(T) cc-pVTZ RIJK cc-pVTZ/JK cc-pVTZ/C
|  2> ! KDIIS SOSCF TightSCF TightPNO
|  3>
|  4> %pal nprocs 8 end
|  5>
|  6> %maxcore 8000
|  7>
|  8> %scf maxiter 300
|  9>      shift shift 0.2 erroff 0.1 end
| 10> end
| 11>
| 12> * xyzfile 0 1 glycolic_acid_cis.xyz
| 13>
| 14>
| 15>                          ****END OF INPUT****

CARTESIAN COORDINATES (ANGSTROEM)
---------------------------------
  C      0.760210   -0.673790    0.000110
  O      1.850450    0.219870   -0.000120
  C     -0.533470    0.120100    0.000100
  O     -0.648250    1.320400    0.000030
  O     -1.592570   -0.733540   -0.000100
  H      0.746140   -1.324730    0.887050
  H      0.746000   -1.325040   -0.886590
  H     -2.399110   -0.191030   -0.000150
  H      2.669430   -0.290890   -0.000130

 Total Charge           Charge          ....    0
 Multiplicity           Mult            ....    1
 Number of Electrons    NEL             ....   40
 Basis Dimension        Dim             ....  206

ORBITAL ENERGIES
----------------

  NO   OCC          E(Eh)            E(eV)
   0   2.0000     -20.615092      -560.9652
   1   2.0000     -20.574356      -559.8567
   2   2.0000     -20.551025      -559.2218
   3   2.0000     -11.389790      -309.9319
   4   2.0000     -11.310906      -307.7854
   5   2.0000      -1.464594       -39.8536
   6   2.0000      -1.381551       -37.5939
   7   2.0000      -1.359253       -36.9872
   8   2.0000      -1.006273       -27.3821
   9   2.0000      -0.817237       -22.2381
  10   2.0000      -0.733265       -19.9532
  11   2.0000      -0.699704       -19.0399
  12   2.0000      -0.677274       -18.4296
  13   2.0000      -0.663648       -18.0588
  14   2.0000      -0.603538       -16.4231
  15   2.0000      -0.596757       -16.2386
  16   2.0000      -0.541635       -14.7386
  17   2.0000      -0.485748       -13.2179
  18   2.0000      -0.470428       -12.8010
  19   2.0000      -0.454304       -12.3622
  20   0.0000       0.127756         3.4764
  21   0.0000       0.147738         4.0202
  22   0.0000       0.165320         4.4986
  23   0.0000       0.184083         5.0091
  24   0.0000       0.219459         5.9718

MULLIKEN ATOMIC CHARGES
-----------------------
   0 C :    0.070798
   1 O :   -0.365173
   2 C :    0.384691
   3 O :   -0.368846
   4 O :   -0.357010
   5 H :    0.078596
   6 H :    0.078614
   7 H :    0.256262
   8 H :    0.222068
Sum of atomic charges:   -0.0000000

LOEWDIN ATOMIC CHARGES
----------------------
   0 C :   -0.058767
   1 O :    0.344000
   2 C :   -0.417909
   3 O :    0.126017
   4 O :    0.379178
   5 H :   -0.024423
   6 H :   -0.024422
   7 H :   -0.141196
   8 H :   -0.182477

  Mayer bond orders larger than 0.1
B(  0-C ,  1-O ) :   1.0441 B(  0-C ,  2-C ) :   0.9441 B(  0-C ,  5-H ) :   0.9638
B(  0-C ,  6-H ) :   0.9638 B(  1-O ,  8-H ) :   0.9906 B(  2-C ,  3-O ) :   2.0938
B(  2-C ,  4-O ) :   1.1636 B(  4-O ,  7-H ) :   0.9501

E(0)                                       ...   -302.774915747
E(0)                                       ...   -302.774915747
E(CORR)(strong-pairs)                      ...     -1.047001612
E(CORR)(weak-pairs)                        ...     -0.000694739
E(CORR)(corrected)                         ...     -1.047696350
E(TOT)                                     ...   -303.822612097
E(CCSD(T))                                 ...   -303.863074307
FINAL SINGLE POINT ENERGY      -303.863074306929

DIPOLE MOMENT
-------------
                                X             Y             Z
Electronic contribution:     -1.59817       1.72376      -0.00005
Nuclear contribution   :      1.73488      -3.08091       0.00018
                        -----------------------------------------
Total Dipole Moment    :      0.13671      -1.35715       0.00013
                        -----------------------------------------
Magnitude (a.u.)       :      1.36402
Magnitude (Debye)      :      3.46707

Rotational constants in cm-1:     0.351542     0.131531     0.097473
Rotational constants in MHz : 10538.956768  3943.207459  2922.162808

                             ****ORCA TERMINATED NORMALLY****
TOTAL RUN TIME: 0 days 0 hours 2 minutes 5 seconds 346 msec
