                         Program Version 4.1.x  -  STABLE  -
|  1> ! RHF DLPNO-CCSD(T) cc-pVTZ RIJK cc-pVTZ/JK cc-pVTZ/C
|  2> ! KDIIS SOSCF TightSCF TightPNO
|  3>
|  4> %pal nprocs 8 end
|  5>
|  6> %maxcore 8000
|  7>
|  8> %scf maxiter 300
|  9>      shift shift 0.2 erroff 0.1 end
| 10> end
| 11>
| 12> * xyzfile 0 1 glycolic_acid_sk.xyz
| 13>
| 14>
| 15>                          ****END OF INPUT****

CARTESIAN COORDINATES (ANGSTROEM)
---------------------------------
  C     -0.778070   -0.698670    0.000100
  O     -1.786320    0.292600   -0.000370
  C      0.613410   -0.093280    0.000080
  O      1.613050   -0.783050   -0.000110
  O      0.637950    1.249940    0.000120
  H     -0.827910   -1.347370   -0.886160
  H     -0.828170   -1.346920    0.886660
  H      1.574930    1.512100   -0.000050
  H     -2.648350   -0.142040    0.001340

 Total Charge           Charge          ....    0
 Multiplicity           Mult            ....    1
 Number of Electrons    NEL             ....   40
 Basis Dimension        Dim             ....  206

ORBITAL ENERGIES
----------------

  NO   OCC          E(Eh)            E(eV)
   0   2.0000     -20.615308      -560.9711
   1   2.0000     -20.576976      -559.9280
   2   2.0000     -20.547468      -559.1250
   3   2.0000     -11.392225      -309.9982
   4   2.0000     -11.310541      -307.7755
   5   2.0000      -1.467156       -39.9234
   6   2.0000      -1.380060       -37.5534
   7   2.0000      -1.360110       -37.0105
   8   2.0000      -1.002363       -27.2757
   9   2.0000      -0.828674       -22.5494
  10   2.0000      -0.725680       -19.7468
  11   2.0000      -0.689940       -18.7742
  12   2.0000      -0.681974       -18.5574
  13   2.0000      -0.676900       -18.4194
  14   2.0000      -0.603971       -16.4349
  15   2.0000      -0.585833       -15.9413
  16   2.0000      -0.543413       -14.7870
  17   2.0000      -0.495829       -13.4922
  18   2.0000      -0.460493       -12.5306
  19   2.0000      -0.455878       -12.4051
  20   0.0000       0.126056         3.4301
  21   0.0000       0.156225         4.2511
  22   0.0000       0.161199         4.3864
  23   0.0000       0.179350         4.8804
  24   0.0000       0.225184         6.1276

MULLIKEN ATOMIC CHARGES
-----------------------
   0 C :    0.076703
   1 O :   -0.375810
   2 C :    0.380072
   3 O :   -0.418849
   4 O :   -0.302049
   5 H :    0.083148
   6 H :    0.083124
   7 H :    0.250190
   8 H :    0.223472
Sum of atomic charges:    0.0000000

LOEWDIN ATOMIC CHARGES
----------------------
   0 C :   -0.050199
   1 O :    0.331251
   2 C :   -0.421023
   3 O :    0.090691
   4 O :    0.409087
   5 H :   -0.021119
   6 H :   -0.021132
   7 H :   -0.135740
   8 H :   -0.181815

  Mayer bond orders larger than 0.1
B(  0-C ,  1-O ) :   1.0306 B(  0-C ,  2-C ) :   0.9297 B(  0-C ,  5-H ) :   0.9703
B(  0-C ,  6-H ) :   0.9703 B(  1-O ,  8-H ) :   0.9880 B(  2-C ,  3-O ) :   2.0413
B(  2-C ,  4-O ) :   1.2193 B(  4-O ,  7-H ) :   0.9482

E(0)                                       ...   -302.774487609
E(0)                                       ...   -302.774487609
E(CORR)(strong-pairs)                      ...     -1.046653566
E(CORR)(weak-pairs)                        ...     -0.000698922
E(CORR)(corrected)                         ...     -1.047352489
E(TOT)                                     ...   -303.821840098
E(CCSD(T))                                 ...   -303.862329104
FINAL SINGLE POINT ENERGY      -303.862329103849

DIPOLE MOMENT
-------------
                                X             Y             Z
Electronic contribution:      1.91477       1.13631      -0.00038
Nuclear contribution   :     -2.68895      -1.29624       0.00176
                        -----------------------------------------
Total Dipole Moment    :     -0.77418      -0.15993       0.00138
                        -----------------------------------------
Magnitude (a.u.)       :      0.79053
Magnitude (Debye)      :      2.00938

Rotational constants in cm-1:     0.341574     0.136214     0.099196
Rotational constants in MHz : 10240.145588  4083.598884  2973.816260

                             ****ORCA TERMINATED NORMALLY****
TOTAL RUN TIME: 0 days 0 hours 2 minutes 4 seconds 731 msec
