                         Program Version 4.1.x  -  STABLE  -
|  1> ! RHF DLPNO-CCSD(T) cc-pVTZ RIJK cc-pVTZ/JK cc-pVTZ/C
|  2> ! KDIIS SOSCF TightSCF TightPNO
|  3>
|  4> %pal nprocs 8 end
|  5>
|  6> %maxcore 8000
|  7>
|  8> %scf maxiter 300
|  9>      shift shift 0.2 erroff 0.1 end
| 10> end
| 11>
| 12> * xyzfile 0 1 hexahydropyrimidine_H_H.xyz
| 13>
| 14>
| 15>                          ****END OF INPUT****

CARTESIAN COORDINATES (ANGSTROEM)
---------------------------------
  C      1.402270   -0.000220    0.222400
  N      0.744930    1.248050   -0.174190
  C     -0.672650    1.260960    0.215100
  C     -1.437290    0.000220   -0.230110
  C     -0.673050   -1.260760    0.215090
  N      0.744540   -1.248240   -0.174170
  H      0.827880   -1.378430   -1.180920
  H      0.828250    1.378100   -1.180960
  H     -1.536200    0.000240   -1.325600
  H     -0.709440    1.340170    1.311070
  H     -1.137760    2.169330   -0.182540
  H     -1.138410   -2.168980   -0.182600
  H     -0.709900   -1.340020    1.311060
  H      2.423000   -0.000370   -0.170490
  H      1.464520   -0.000210    1.318660
  H     -2.453900    0.000390    0.185980

 Total Charge           Charge          ....    0
 Multiplicity           Mult            ....    1
 Number of Electrons    NEL             ....   48
 Basis Dimension        Dim             ....  320

ORBITAL ENERGIES
----------------

  NO   OCC          E(Eh)            E(eV)
   0   2.0000     -15.536799      -422.7778
   1   2.0000     -15.536779      -422.7773
   2   2.0000     -11.269684      -306.6637
   3   2.0000     -11.247426      -306.0580
   4   2.0000     -11.247421      -306.0579
   5   2.0000     -11.219451      -305.2968
   6   2.0000      -1.238132       -33.6913
   7   2.0000      -1.147685       -31.2301
   8   2.0000      -1.032900       -28.1066
   9   2.0000      -0.879707       -23.9380
  10   2.0000      -0.871100       -23.7038
  11   2.0000      -0.790813       -21.5191
  12   2.0000      -0.673306       -18.3216
  13   2.0000      -0.648755       -17.6535
  14   2.0000      -0.617860       -16.8128
  15   2.0000      -0.589836       -16.0502
  16   2.0000      -0.575722       -15.6662
  17   2.0000      -0.531087       -14.4516
  18   2.0000      -0.528149       -14.3717
  19   2.0000      -0.496710       -13.5162
  20   2.0000      -0.493963       -13.4414
  21   2.0000      -0.473184       -12.8760
  22   2.0000      -0.393744       -10.7143
  23   2.0000      -0.347946        -9.4681
  24   0.0000       0.134126         3.6497
  25   0.0000       0.154150         4.1946
  26   0.0000       0.172191         4.6855
  27   0.0000       0.172889         4.7045
  28   0.0000       0.209055         5.6887

MULLIKEN ATOMIC CHARGES
-----------------------
   0 C :   -0.003737
   1 N :   -0.279287
   2 C :   -0.089720
   3 C :   -0.199443
   4 C :   -0.089720
   5 N :   -0.279279
   6 H :    0.095757
   7 H :    0.095748
   8 H :    0.079782
   9 H :    0.087164
  10 H :    0.106453
  11 H :    0.106453
  12 H :    0.087167
  13 H :    0.101157
  14 H :    0.084718
  15 H :    0.096786
Sum of atomic charges:   -0.0000000

LOEWDIN ATOMIC CHARGES
----------------------
   0 C :   -0.095524
   1 N :    0.281600
   2 C :   -0.016531
   3 C :    0.039333
   4 C :   -0.016526
   5 N :    0.281615
   6 H :   -0.117278
   7 H :   -0.117285
   8 H :   -0.035221
   9 H :   -0.028142
  10 H :   -0.030151
  11 H :   -0.030150
  12 H :   -0.028139
  13 H :   -0.030863
  14 H :   -0.029611
  15 H :   -0.027127

  Mayer bond orders larger than 0.1
B(  0-C ,  1-N ) :   1.0016 B(  0-C ,  5-N ) :   1.0016 B(  0-C , 13-H ) :   0.9979
B(  0-C , 14-H ) :   0.9888 B(  1-N ,  2-C ) :   0.9924 B(  1-N ,  7-H ) :   0.9973
B(  2-C ,  3-C ) :   0.9372 B(  2-C ,  9-H ) :   0.9860 B(  2-C , 10-H ) :   0.9986
B(  3-C ,  4-C ) :   0.9372 B(  3-C ,  8-H ) :   0.9786 B(  3-C , 15-H ) :   0.9796
B(  4-C ,  5-N ) :   0.9924 B(  4-C , 11-H ) :   0.9986 B(  4-C , 12-H ) :   0.9860
B(  5-N ,  6-H ) :   0.9973

E(0)                                       ...   -266.267315779
E(0)                                       ...   -266.267315779
E(CORR)(strong-pairs)                      ...     -1.156801390
E(CORR)(weak-pairs)                        ...     -0.001089267
E(CORR)(corrected)                         ...     -1.157890657
E(TOT)                                     ...   -267.425206436
E(CCSD(T))                                 ...   -267.471761949
FINAL SINGLE POINT ENERGY      -267.471761949021

DIPOLE MOMENT
-------------
                                X             Y             Z
Electronic contribution:      1.79592      -0.00026      -0.37873
Nuclear contribution   :     -2.23252       0.00021      -0.10297
                        -----------------------------------------
Total Dipole Moment    :     -0.43660      -0.00005      -0.48170
                        -----------------------------------------
Magnitude (a.u.)       :      0.65012
Magnitude (Debye)      :      1.65246

Rotational constants in cm-1:     0.154019     0.150663     0.086407
Rotational constants in MHz :  4617.369586  4516.764313  2590.405608

                             ****ORCA TERMINATED NORMALLY****
TOTAL RUN TIME: 0 days 0 hours 7 minutes 49 seconds 855 msec
