                         Program Version 4.1.x  -  STABLE  -
|  1> ! RHF DLPNO-CCSD(T) cc-pVTZ RIJK cc-pVTZ/JK cc-pVTZ/C
|  2> ! KDIIS SOSCF TightSCF TightPNO
|  3>
|  4> %pal nprocs 8 end
|  5>
|  6> %maxcore 8000
|  7>
|  8> %scf maxiter 300
|  9>      shift shift 0.2 erroff 0.1 end
| 10> end
| 11>
| 12> * xyzfile 0 1 hexahydropyrimidine_lp_H.xyz
| 13>
| 14>
| 15>                          ****END OF INPUT****

CARTESIAN COORDINATES (ANGSTROEM)
---------------------------------
  C      1.172340   -0.757530    0.212430
  N      1.219370    0.613820   -0.317390
  C      0.106640    1.423250    0.193610
  C     -1.218450    0.767530   -0.218280
  C     -1.240680   -0.706240    0.226140
  N     -0.041070   -1.452850   -0.181450
  H     -0.039120   -1.562210   -1.193970
  H      2.112890    1.048780   -0.100140
  H     -1.318150    0.823580   -1.309840
  H      0.132910    1.515250    1.297980
  H      0.183450    2.434170   -0.220690
  H     -2.123120   -1.223260   -0.165750
  H     -1.301840   -0.758630    1.322400
  H      2.042030   -1.306230   -0.161840
  H      1.206880   -0.773290    1.318330
  H     -2.063150    1.312990    0.222010

 Total Charge           Charge          ....    0
 Multiplicity           Mult            ....    1
 Number of Electrons    NEL             ....   48
 Basis Dimension        Dim             ....  320

ORBITAL ENERGIES
----------------

  NO   OCC          E(Eh)            E(eV)
   0   2.0000     -15.536611      -422.7727
   1   2.0000     -15.534864      -422.7251
   2   2.0000     -11.270405      -306.6833
   3   2.0000     -11.247527      -306.0608
   4   2.0000     -11.244884      -305.9889
   5   2.0000     -11.217048      -305.2314
   6   2.0000      -1.239344       -33.7243
   7   2.0000      -1.147153       -31.2156
   8   2.0000      -1.032497       -28.0957
   9   2.0000      -0.879587       -23.9348
  10   2.0000      -0.867577       -23.6080
  11   2.0000      -0.777005       -21.1434
  12   2.0000      -0.685687       -18.6585
  13   2.0000      -0.636711       -17.3258
  14   2.0000      -0.620837       -16.8938
  15   2.0000      -0.598653       -16.2902
  16   2.0000      -0.569187       -15.4884
  17   2.0000      -0.550689       -14.9850
  18   2.0000      -0.531711       -14.4686
  19   2.0000      -0.492575       -13.4036
  20   2.0000      -0.479470       -13.0470
  21   2.0000      -0.461956       -12.5705
  22   2.0000      -0.370484       -10.0814
  23   2.0000      -0.366884        -9.9834
  24   0.0000       0.140906         3.8343
  25   0.0000       0.158073         4.3014
  26   0.0000       0.165379         4.5002
  27   0.0000       0.177141         4.8203
  28   0.0000       0.203341         5.5332

MULLIKEN ATOMIC CHARGES
-----------------------
   0 C :    0.003918
   1 N :   -0.296595
   2 C :   -0.083194
   3 C :   -0.185732
   4 C :   -0.088728
   5 N :   -0.279918
   6 H :    0.105834
   7 H :    0.119654
   8 H :    0.087265
   9 H :    0.064506
  10 H :    0.100517
  11 H :    0.105287
  12 H :    0.084839
  13 H :    0.097194
  14 H :    0.068947
  15 H :    0.096205
Sum of atomic charges:   -0.0000000

LOEWDIN ATOMIC CHARGES
----------------------
   0 C :   -0.094783
   1 N :    0.277776
   2 C :   -0.016734
   3 C :    0.046614
   4 C :   -0.014534
   5 N :    0.289590
   6 H :   -0.108144
   7 H :   -0.112945
   8 H :   -0.029577
   9 H :   -0.043549
  10 H :   -0.031340
  11 H :   -0.029433
  12 H :   -0.029384
  13 H :   -0.032401
  14 H :   -0.043806
  15 H :   -0.027351

  Mayer bond orders larger than 0.1
B(  0-C ,  1-N ) :   0.9822 B(  0-C ,  5-N ) :   1.0242 B(  0-C , 13-H ) :   0.9938
B(  0-C , 14-H ) :   0.9880 B(  1-N ,  2-C ) :   0.9722 B(  1-N ,  7-H ) :   0.9902
B(  2-C ,  3-C ) :   0.9460 B(  2-C ,  9-H ) :   0.9792 B(  2-C , 10-H ) :   0.9933
B(  3-C ,  4-C ) :   0.9470 B(  3-C ,  8-H ) :   0.9785 B(  3-C , 15-H ) :   0.9848
B(  4-C ,  5-N ) :   1.0000 B(  4-C , 11-H ) :   0.9974 B(  4-C , 12-H ) :   0.9870
B(  5-N ,  6-H ) :   0.9939

E(0)                                       ...   -266.267717105
E(0)                                       ...   -266.267717105
E(CORR)(strong-pairs)                      ...     -1.156410964
E(CORR)(weak-pairs)                        ...     -0.001095882
E(CORR)(corrected)                         ...     -1.157506846
E(TOT)                                     ...   -267.425223951
E(CCSD(T))                                 ...   -267.471614368
FINAL SINGLE POINT ENERGY      -267.471614368023

DIPOLE MOMENT
-------------
                                X             Y             Z
Electronic contribution:      1.27494      -1.11959      -0.92904
Nuclear contribution   :     -1.21431       1.57634       1.05237
                        -----------------------------------------
Total Dipole Moment    :      0.06063       0.45675       0.12332
                        -----------------------------------------
Magnitude (a.u.)       :      0.47698
Magnitude (Debye)      :      1.21237

Rotational constants in cm-1:     0.155426     0.152155     0.086835
Rotational constants in MHz :  4659.564903  4561.483817  2603.247381

                             ****ORCA TERMINATED NORMALLY****
TOTAL RUN TIME: 0 days 0 hours 7 minutes 53 seconds 384 msec
