                         Program Version 4.1.x  -  STABLE  -
|  1> ! RHF DLPNO-CCSD(T) cc-pVTZ RIJK cc-pVTZ/JK cc-pVTZ/C
|  2> ! KDIIS SOSCF TightSCF TightPNO
|  3>
|  4> %pal nprocs 8 end
|  5>
|  6> %maxcore 8000
|  7>
|  8> %scf maxiter 300
|  9>      shift shift 0.2 erroff 0.1 end
| 10> end
| 11>
| 12> * xyzfile 0 1 hydroxycyclohexane_ax.xyz
| 13>
| 14>
| 15>                          ****END OF INPUT****

CARTESIAN COORDINATES (ANGSTROEM)
---------------------------------
  C      1.161990   -0.029990    0.428400
  C      0.337310    1.255890    0.606010
  C     -0.906440    1.286430   -0.296190
  C     -1.773090    0.032560   -0.093970
  C     -0.953640   -1.250300   -0.309640
  C      0.291070   -1.280140    0.591760
  O      1.750730   -0.104460   -0.883010
  H     -1.489960    2.192770   -0.092470
  H     -0.591390    1.341220   -1.345990
  H     -2.633240    0.053710   -0.774570
  H     -2.182690    0.035930    0.927720
  H     -0.638040   -1.308860   -1.358400
  H     -1.572040   -2.134870   -0.113370
  H      0.031590    1.321450    1.660300
  H      0.974150    2.131990    0.417200
  H      0.901590   -2.165490    0.381090
  H     -0.016660   -1.343370    1.644870
  H      1.965660   -0.052100    1.180910
  H      2.302050    0.676580   -1.021460

 Total Charge           Charge          ....    0
 Multiplicity           Mult            ....    1
 Number of Electrons    NEL             ....   56
 Basis Dimension        Dim             ....  378

ORBITAL ENERGIES
----------------

  NO   OCC          E(Eh)            E(eV)
   0   2.0000     -20.546700      -559.1041
   1   2.0000     -11.275102      -306.8111
   2   2.0000     -11.220565      -305.3271
   3   2.0000     -11.215564      -305.1910
   4   2.0000     -11.214410      -305.1596
   5   2.0000     -11.214279      -305.1561
   6   2.0000     -11.211203      -305.0723
   7   2.0000      -1.347984       -36.6805
   8   2.0000      -1.100267       -29.9398
   9   2.0000      -1.000949       -27.2372
  10   2.0000      -0.989140       -26.9159
  11   2.0000      -0.833907       -22.6918
  12   2.0000      -0.823006       -22.3951
  13   2.0000      -0.745692       -20.2913
  14   2.0000      -0.675066       -18.3695
  15   2.0000      -0.651095       -17.7172
  16   2.0000      -0.614241       -16.7143
  17   2.0000      -0.602937       -16.4068
  18   2.0000      -0.562305       -15.3011
  19   2.0000      -0.551096       -14.9961
  20   2.0000      -0.523325       -14.2404
  21   2.0000      -0.517449       -14.0805
  22   2.0000      -0.502366       -13.6701
  23   2.0000      -0.480325       -13.0703
  24   2.0000      -0.464189       -12.6312
  25   2.0000      -0.450490       -12.2585
  26   2.0000      -0.426012       -11.5924
  27   2.0000      -0.414641       -11.2830
  28   0.0000       0.132400         3.6028
  29   0.0000       0.158035         4.3004
  30   0.0000       0.162198         4.4136
  31   0.0000       0.173811         4.7296
  32   0.0000       0.195191         5.3114

MULLIKEN ATOMIC CHARGES
-----------------------
   0 C :    0.111494
   1 C :   -0.216751
   2 C :   -0.177037
   3 C :   -0.198744
   4 C :   -0.189395
   5 C :   -0.191653
   6 O :   -0.439187
   7 H :    0.108095
   8 H :    0.089983
   9 H :    0.107579
  10 H :    0.082264
  11 H :    0.099869
  12 H :    0.106130
  13 H :    0.092377
  14 H :    0.097116
  15 H :    0.108736
  16 H :    0.089288
  17 H :    0.101242
  18 H :    0.218594
Sum of atomic charges:   -0.0000000

LOEWDIN ATOMIC CHARGES
----------------------
   0 C :   -0.109845
   1 C :    0.051737
   2 C :    0.059307
   3 C :    0.056888
   4 C :    0.060940
   5 C :    0.059082
   6 O :    0.313859
   7 H :   -0.028398
   8 H :   -0.026401
   9 H :   -0.027414
  10 H :   -0.028878
  11 H :   -0.023803
  12 H :   -0.028302
  13 H :   -0.022116
  14 H :   -0.030369
  15 H :   -0.022263
  16 H :   -0.024216
  17 H :   -0.034601
  18 H :   -0.195207

  Mayer bond orders larger than 0.1
B(  0-C ,  1-C ) :   0.9549 B(  0-C ,  5-C ) :   0.9470 B(  0-C ,  6-O ) :   0.9705
B(  0-C , 17-H ) :   1.0092 B(  1-C ,  2-C ) :   0.9421 B(  1-C , 13-H ) :   0.9808
B(  1-C , 14-H ) :   0.9938 B(  2-C ,  3-C ) :   0.9521 B(  2-C ,  7-H ) :   0.9954
B(  2-C ,  8-H ) :   0.9787 B(  3-C ,  4-C ) :   0.9505 B(  3-C ,  9-H ) :   0.9948
B(  3-C , 10-H ) :   0.9858 B(  4-C ,  5-C ) :   0.9510 B(  4-C , 11-H ) :   0.9787
B(  4-C , 12-H ) :   0.9945 B(  5-C , 15-H ) :   0.9895 B(  5-C , 16-H ) :   0.9880
B(  6-O , 18-H ) :   0.9923

E(0)                                       ...   -309.171346401
E(0)                                       ...   -309.171346401
E(CORR)(strong-pairs)                      ...     -1.334590129
E(CORR)(weak-pairs)                        ...     -0.001327096
E(CORR)(corrected)                         ...     -1.335917225
E(TOT)                                     ...   -310.507263626
E(CCSD(T))                                 ...   -310.559688484
FINAL SINGLE POINT ENERGY      -310.559688484147

DIPOLE MOMENT
-------------
                                X             Y             Z
Electronic contribution:      3.11225      -0.31953      -1.18073
Nuclear contribution   :     -3.06755       0.78471       1.56656
                        -----------------------------------------
Total Dipole Moment    :      0.04470       0.46517       0.38583
                        -----------------------------------------
Magnitude (a.u.)       :      0.60601
Magnitude (Debye)      :      1.54035

Rotational constants in cm-1:     0.118089     0.087122     0.065268
Rotational constants in MHz :  3540.223874  2611.839053  1956.687519

                             ****ORCA TERMINATED NORMALLY****
TOTAL RUN TIME: 0 days 0 hours 11 minutes 20 seconds 428 msec
