                         Program Version 4.1.x  -  STABLE  -
|  1> ! RHF DLPNO-CCSD(T) cc-pVTZ RIJK cc-pVTZ/JK cc-pVTZ/C
|  2> ! KDIIS SOSCF TightSCF TightPNO
|  3>
|  4> %pal nprocs 8 end
|  5>
|  6> %maxcore 8000
|  7>
|  8> %scf maxiter 300
|  9>      shift shift 0.2 erroff 0.1 end
| 10> end
| 11>
| 12> * xyzfile 0 1 hydroxycyclohexane_eq.xyz
| 13>
| 14>
| 15>                          ****END OF INPUT****

CARTESIAN COORDINATES (ANGSTROEM)
---------------------------------
  C      1.035070   -0.014080    0.320330
  C      0.319220   -1.270110   -0.174050
  C     -1.168670   -1.259220    0.214970
  C     -1.874210    0.014960   -0.277020
  C     -1.147370    1.279680    0.207960
  C      0.340140    1.256110   -0.185510
  O      2.394390   -0.097770   -0.128280
  H     -1.664370   -2.149820   -0.189260
  H     -1.260890   -1.323250    1.309040
  H     -2.917770    0.025670    0.060920
  H     -1.900340    0.012600   -1.376270
  H     -1.234230    1.349830    1.302060
  H     -1.627280    2.177780   -0.198970
  H      0.422500   -1.312990   -1.266930
  H      0.823550   -2.155770    0.228680
  H      0.852240    2.145260    0.208910
  H      0.440330    1.287870   -1.279160
  H      1.017820   -0.011590    1.424080
  H      2.868250    0.692520    0.163000

 Total Charge           Charge          ....    0
 Multiplicity           Mult            ....    1
 Number of Electrons    NEL             ....   56
 Basis Dimension        Dim             ....  378

ORBITAL ENERGIES
----------------

  NO   OCC          E(Eh)            E(eV)
   0   2.0000     -20.546503      -559.0988
   1   2.0000     -11.273826      -306.7764
   2   2.0000     -11.222601      -305.3825
   3   2.0000     -11.219763      -305.3053
   4   2.0000     -11.219657      -305.3024
   5   2.0000     -11.219134      -305.2881
   6   2.0000     -11.213517      -305.1353
   7   2.0000      -1.347941       -36.6793
   8   2.0000      -1.107201       -30.1285
   9   2.0000      -1.003671       -27.3113
  10   2.0000      -0.988748       -26.9052
  11   2.0000      -0.838410       -22.8143
  12   2.0000      -0.820988       -22.3402
  13   2.0000      -0.756312       -20.5803
  14   2.0000      -0.680711       -18.5231
  15   2.0000      -0.646185       -17.5836
  16   2.0000      -0.610350       -16.6085
  17   2.0000      -0.604652       -16.4534
  18   2.0000      -0.583794       -15.8858
  19   2.0000      -0.544223       -14.8091
  20   2.0000      -0.527517       -14.3545
  21   2.0000      -0.524600       -14.2751
  22   2.0000      -0.488412       -13.2904
  23   2.0000      -0.483771       -13.1641
  24   2.0000      -0.460624       -12.5342
  25   2.0000      -0.457122       -12.4389
  26   2.0000      -0.434527       -11.8241
  27   2.0000      -0.419158       -11.4059
  28   0.0000       0.137616         3.7447
  29   0.0000       0.148361         4.0371
  30   0.0000       0.156853         4.2682
  31   0.0000       0.168402         4.5824
  32   0.0000       0.192919         5.2496

MULLIKEN ATOMIC CHARGES
-----------------------
   0 C :    0.146476
   1 C :   -0.190574
   2 C :   -0.209491
   3 C :   -0.190022
   4 C :   -0.209099
   5 C :   -0.204416
   6 O :   -0.420644
   7 H :    0.111141
   8 H :    0.087429
   9 H :    0.108984
  10 H :    0.088911
  11 H :    0.088029
  12 H :    0.110992
  13 H :    0.092455
  14 H :    0.113806
  15 H :    0.093220
  16 H :    0.095464
  17 H :    0.072710
  18 H :    0.214630
Sum of atomic charges:   -0.0000000

LOEWDIN ATOMIC CHARGES
----------------------
   0 C :   -0.118485
   1 C :    0.060539
   2 C :    0.059451
   3 C :    0.057158
   4 C :    0.059665
   5 C :    0.052898
   6 O :    0.317811
   7 H :   -0.025772
   8 H :   -0.027322
   9 H :   -0.027035
  10 H :   -0.026279
  11 H :   -0.027178
  12 H :   -0.026096
  13 H :   -0.022651
  14 H :   -0.022980
  15 H :   -0.030677
  16 H :   -0.023453
  17 H :   -0.035962
  18 H :   -0.193631

  Mayer bond orders larger than 0.1
B(  0-C ,  1-C ) :   0.9527 B(  0-C ,  5-C ) :   0.9614 B(  0-C ,  6-O ) :   1.0011
B(  0-C , 17-H ) :   0.9848 B(  1-C ,  2-C ) :   0.9423 B(  1-C , 13-H ) :   0.9804
B(  1-C , 14-H ) :   0.9906 B(  2-C ,  3-C ) :   0.9435 B(  2-C ,  7-H ) :   0.9936
B(  2-C ,  8-H ) :   0.9835 B(  3-C ,  4-C ) :   0.9475 B(  3-C ,  9-H ) :   0.9944
B(  3-C , 10-H ) :   0.9842 B(  4-C ,  5-C ) :   0.9392 B(  4-C , 11-H ) :   0.9835
B(  4-C , 12-H ) :   0.9911 B(  5-C , 15-H ) :   0.9925 B(  5-C , 16-H ) :   0.9779
B(  6-O , 18-H ) :   0.9922

E(0)                                       ...   -309.172365003
E(0)                                       ...   -309.172365003
E(CORR)(strong-pairs)                      ...     -1.334116764
E(CORR)(weak-pairs)                        ...     -0.001322367
E(CORR)(corrected)                         ...     -1.335439131
E(TOT)                                     ...   -310.507804134
E(CCSD(T))                                 ...   -310.560184238
FINAL SINGLE POINT ENERGY      -310.560184238285

DIPOLE MOMENT
-------------
                                X             Y             Z
Electronic contribution:      3.99828      -0.29390      -0.08916
Nuclear contribution   :     -4.34969       0.77342       0.40331
                        -----------------------------------------
Total Dipole Moment    :     -0.35141       0.47952       0.31415
                        -----------------------------------------
Magnitude (a.u.)       :      0.67239
Magnitude (Debye)      :      1.70909

Rotational constants in cm-1:     0.142209     0.073758     0.053204
Rotational constants in MHz :  4263.316654  2211.196942  1595.012253

                             ****ORCA TERMINATED NORMALLY****
TOTAL RUN TIME: 0 days 0 hours 11 minutes 20 seconds 931 msec
