                         Program Version 4.1.x  -  STABLE  -
|  1> ! RHF DLPNO-CCSD(T) cc-pVTZ RIJK cc-pVTZ/JK cc-pVTZ/C
|  2> ! KDIIS SOSCF TightSCF TightPNO
|  3>
|  4> %pal nprocs 8 end
|  5>
|  6> %maxcore 8000
|  7>
|  8> %scf maxiter 300
|  9>      shift shift 0.2 erroff 0.1 end
| 10> end
| 11>
| 12> * xyzfile 0 1 isopropylcyclohexane_ax.xyz
| 13>
| 14>
| 15>                          ****END OF INPUT****

CARTESIAN COORDINATES (ANGSTROEM)
---------------------------------
  C     -0.327110   -0.000130    0.773230
  C      0.583700   -1.252510    0.760380
  C      1.563640   -1.271600   -0.426070
  C      2.426960    0.000070   -0.459140
  C      1.563500    1.271640   -0.425920
  C      0.583560    1.252340    0.760520
  C     -1.417730   -0.000050   -0.339440
  C     -2.307850   -1.254670   -0.273040
  C     -2.307460    1.254840   -0.273080
  H      2.204420   -2.160240   -0.363540
  H      1.008000   -1.360590   -1.369930
  H      3.074360    0.000150   -1.345140
  H      3.094560    0.000050    0.415380
  H      1.007880    1.360680   -1.369780
  H      2.204190    2.160350   -0.363290
  H      1.167890   -1.253320    1.692040
  H     -0.010200   -2.172090    0.778430
  H     -0.010460    2.171850    0.778620
  H      1.167720    1.253150    1.692190
  H     -0.873470   -0.000190    1.729810
  H     -0.923420   -0.000140   -1.320800
  H     -3.107810    1.198300   -1.019290
  H     -2.780760    1.347230    0.713300
  H     -1.750040    2.176340   -0.463380
  H     -3.108260   -1.197840   -1.019170
  H     -1.750760   -2.176350   -0.463430
  H     -2.781100   -1.346940    0.713380

 Total Charge           Charge          ....    0
 Multiplicity           Mult            ....    1
 Number of Electrons    NEL             ....   72
 Basis Dimension        Dim             ....  522

ORBITAL ENERGIES
----------------

  NO   OCC          E(Eh)            E(eV)
   0   2.0000     -11.223112      -305.3964
   1   2.0000     -11.220005      -305.3119
   2   2.0000     -11.214021      -305.1490
   3   2.0000     -11.213569      -305.1367
   4   2.0000     -11.213191      -305.1264
   5   2.0000     -11.211652      -305.0845
   6   2.0000     -11.211621      -305.0837
   7   2.0000     -11.208251      -304.9920
   8   2.0000     -11.208228      -304.9914
   9   2.0000      -1.118021       -30.4229
  10   2.0000      -1.057465       -28.7751
  11   2.0000      -0.995429       -27.0870
  12   2.0000      -0.979099       -26.6426
  13   2.0000      -0.921380       -25.0720
  14   2.0000      -0.837661       -22.7939
  15   2.0000      -0.822781       -22.3890
  16   2.0000      -0.786942       -21.4138
  17   2.0000      -0.713558       -19.4169
  18   2.0000      -0.651381       -17.7250
  19   2.0000      -0.623680       -16.9712
  20   2.0000      -0.600164       -16.3313
  21   2.0000      -0.598965       -16.2987
  22   2.0000      -0.583380       -15.8746
  23   2.0000      -0.543131       -14.7793
  24   2.0000      -0.541572       -14.7369
  25   2.0000      -0.530562       -14.4373
  26   2.0000      -0.522927       -14.2296
  27   2.0000      -0.518033       -14.0964
  28   2.0000      -0.501386       -13.6434
  29   2.0000      -0.478316       -13.0157
  30   2.0000      -0.472564       -12.8591
  31   2.0000      -0.464610       -12.6427
  32   2.0000      -0.455762       -12.4019
  33   2.0000      -0.425443       -11.5769
  34   2.0000      -0.418675       -11.3927
  35   2.0000      -0.413217       -11.2442
  36   0.0000       0.137085         3.7303
  37   0.0000       0.150265         4.0889
  38   0.0000       0.157501         4.2858
  39   0.0000       0.164535         4.4772
  40   0.0000       0.187751         5.1090

MULLIKEN ATOMIC CHARGES
-----------------------
   0 C :   -0.079502
   1 C :   -0.228307
   2 C :   -0.200943
   3 C :   -0.189246
   4 C :   -0.200938
   5 C :   -0.228330
   6 C :   -0.083875
   7 C :   -0.310770
   8 C :   -0.310779
   9 H :    0.111586
  10 H :    0.090652
  11 H :    0.107332
  12 H :    0.084255
  13 H :    0.090656
  14 H :    0.111579
  15 H :    0.102184
  16 H :    0.115062
  17 H :    0.115060
  18 H :    0.102198
  19 H :    0.108859
  20 H :    0.105525
  21 H :    0.101885
  22 H :    0.090591
  23 H :    0.101398
  24 H :    0.101881
  25 H :    0.101402
  26 H :    0.090585
Sum of atomic charges:   -0.0000000

LOEWDIN ATOMIC CHARGES
----------------------
   0 C :    0.001403
   1 C :    0.065536
   2 C :    0.058402
   3 C :    0.056898
   4 C :    0.058401
   5 C :    0.065531
   6 C :   -0.015329
   7 C :    0.112172
   8 C :    0.112173
   9 H :   -0.027325
  10 H :   -0.030381
  11 H :   -0.028512
  12 H :   -0.027163
  13 H :   -0.030383
  14 H :   -0.027320
  15 H :   -0.024120
  16 H :   -0.030647
  17 H :   -0.030643
  18 H :   -0.024125
  19 H :   -0.022478
  20 H :   -0.031243
  21 H :   -0.028717
  22 H :   -0.028261
  23 H :   -0.033446
  24 H :   -0.028712
  25 H :   -0.033447
  26 H :   -0.028261

  Mayer bond orders larger than 0.1
B(  0-C ,  1-C ) :   0.9503 B(  0-C ,  5-C ) :   0.9502 B(  0-C ,  6-C ) :   0.9598
B(  0-C , 19-H ) :   0.9903 B(  1-C ,  2-C ) :   0.9429 B(  1-C , 15-H ) :   0.9927
B(  1-C , 16-H ) :   0.9944 B(  2-C ,  3-C ) :   0.9480 B(  2-C ,  9-H ) :   0.9941
B(  2-C , 10-H ) :   0.9825 B(  3-C ,  4-C ) :   0.9480 B(  3-C , 11-H ) :   0.9959
B(  3-C , 12-H ) :   0.9858 B(  4-C ,  5-C ) :   0.9429 B(  4-C , 13-H ) :   0.9825
B(  4-C , 14-H ) :   0.9941 B(  5-C , 17-H ) :   0.9944 B(  5-C , 18-H ) :   0.9927
B(  6-C ,  7-C ) :   0.9547 B(  6-C ,  8-C ) :   0.9547 B(  6-C , 20-H ) :   0.9745
B(  7-C , 24-H ) :   0.9888 B(  7-C , 25-H ) :   0.9848 B(  7-C , 26-H ) :   0.9797
B(  8-C , 21-H ) :   0.9888 B(  8-C , 22-H ) :   0.9797 B(  8-C , 23-H ) :   0.9848

E(0)                                       ...   -351.418527959
E(0)                                       ...   -351.418527959
E(CORR)(strong-pairs)                      ...     -1.663869059
E(CORR)(weak-pairs)                        ...     -0.002041860
E(CORR)(corrected)                         ...     -1.665910919
E(TOT)                                     ...   -353.084438878
E(CCSD(T))                                 ...   -353.151454271
FINAL SINGLE POINT ENERGY      -353.151454270822

DIPOLE MOMENT
-------------
                                X             Y             Z
Electronic contribution:      2.35001      -0.00043       0.61115
Nuclear contribution   :     -2.32139       0.00043      -0.62619
                        -----------------------------------------
Total Dipole Moment    :      0.02861       0.00000      -0.01504
                        -----------------------------------------
Magnitude (a.u.)       :      0.03232
Magnitude (Debye)      :      0.08216

Rotational constants in cm-1:     0.080748     0.040126     0.032179
Rotational constants in MHz :  2420.774963  1202.940635   964.689285

                             ****ORCA TERMINATED NORMALLY****
TOTAL RUN TIME: 0 days 0 hours 30 minutes 30 seconds 976 msec
