                         Program Version 4.1.x  -  STABLE  -
|  1> ! RHF DLPNO-CCSD(T) cc-pVTZ RIJK cc-pVTZ/JK cc-pVTZ/C
|  2> ! KDIIS SOSCF TightSCF TightPNO
|  3>
|  4> %pal nprocs 8 end
|  5>
|  6> %maxcore 8000
|  7>
|  8> %scf maxiter 300
|  9>      shift shift 0.2 erroff 0.1 end
| 10> end
| 11>
| 12> * xyzfile 0 1 isopropylcyclohexane_eq.xyz
| 13>
| 14>
| 15>                          ****END OF INPUT****

CARTESIAN COORDINATES (ANGSTROEM)
---------------------------------
  C     -0.297560   -0.000050    0.200580
  C      0.482050    1.261010   -0.233310
  C      1.941850    1.261290    0.250410
  C      2.692480    0.000030   -0.195660
  C      1.941890   -1.261300    0.250280
  C      0.482090   -1.261020   -0.233440
  C     -1.763000   -0.000040   -0.318150
  C     -2.543110   -1.254270    0.117300
  C     -2.543010    1.254330    0.117070
  H      2.453050    2.161220   -0.114200
  H      1.957040    1.318930    1.348890
  H      3.714110    0.000030    0.204710
  H      2.784990    0.000080   -1.291840
  H      1.957080   -1.319040    1.348760
  H      2.453110   -2.161180   -0.114410
  H      0.466830    1.323310   -1.332850
  H     -0.015570    2.163720    0.135590
  H     -0.015500   -2.163770    0.135400
  H      0.466870   -1.323220   -1.332990
  H     -0.344410   -0.000090    1.303630
  H     -1.717660   -0.000130   -1.419050
  H     -3.582430    1.197330   -0.225040
  H     -2.560760    1.343790    1.211250
  H     -2.117630    2.176690   -0.287680
  H     -3.582560   -1.197170   -0.224670
  H     -2.117910   -2.176720   -0.287440
  H     -2.560720   -1.343630    1.211480

 Total Charge           Charge          ....    0
 Multiplicity           Mult            ....    1
 Number of Electrons    NEL             ....   72
 Basis Dimension        Dim             ....  522

ORBITAL ENERGIES
----------------

  NO   OCC          E(Eh)            E(eV)
   0   2.0000     -11.223848      -305.4164
   1   2.0000     -11.219923      -305.3096
   2   2.0000     -11.213735      -305.1412
   3   2.0000     -11.213561      -305.1365
   4   2.0000     -11.212615      -305.1108
   5   2.0000     -11.211798      -305.0885
   6   2.0000     -11.211763      -305.0876
   7   2.0000     -11.207930      -304.9833
   8   2.0000     -11.207908      -304.9827
   9   2.0000      -1.117727       -30.4149
  10   2.0000      -1.061223       -28.8774
  11   2.0000      -0.996044       -27.1037
  12   2.0000      -0.977384       -26.5960
  13   2.0000      -0.921778       -25.0828
  14   2.0000      -0.839390       -22.8410
  15   2.0000      -0.823135       -22.3986
  16   2.0000      -0.764229       -20.7957
  17   2.0000      -0.745086       -20.2748
  18   2.0000      -0.646233       -17.5849
  19   2.0000      -0.616591       -16.7783
  20   2.0000      -0.593607       -16.1529
  21   2.0000      -0.592521       -16.1233
  22   2.0000      -0.579427       -15.7670
  23   2.0000      -0.567837       -15.4516
  24   2.0000      -0.556379       -15.1399
  25   2.0000      -0.529112       -14.3979
  26   2.0000      -0.521944       -14.2028
  27   2.0000      -0.496057       -13.4984
  28   2.0000      -0.486214       -13.2306
  29   2.0000      -0.478029       -13.0078
  30   2.0000      -0.476718       -12.9722
  31   2.0000      -0.469102       -12.7649
  32   2.0000      -0.454932       -12.3793
  33   2.0000      -0.442259       -12.0345
  34   2.0000      -0.414250       -11.2723
  35   2.0000      -0.413128       -11.2418
  36   0.0000       0.140713         3.8290
  37   0.0000       0.149244         4.0611
  38   0.0000       0.154904         4.2151
  39   0.0000       0.163422         4.4469
  40   0.0000       0.187095         5.0911

MULLIKEN ATOMIC CHARGES
-----------------------
   0 C :   -0.064624
   1 C :   -0.207833
   2 C :   -0.198114
   3 C :   -0.185217
   4 C :   -0.198114
   5 C :   -0.207822
   6 C :   -0.060936
   7 C :   -0.315162
   8 C :   -0.315160
   9 H :    0.107047
  10 H :    0.085867
  11 H :    0.106610
  12 H :    0.084721
  13 H :    0.085863
  14 H :    0.107050
  15 H :    0.086958
  16 H :    0.111303
  17 H :    0.111302
  18 H :    0.086957
  19 H :    0.095272
  20 H :    0.098040
  21 H :    0.101809
  22 H :    0.089035
  23 H :    0.102150
  24 H :    0.101811
  25 H :    0.102148
  26 H :    0.089041
Sum of atomic charges:    0.0000000

LOEWDIN ATOMIC CHARGES
----------------------
   0 C :   -0.003574
   1 C :    0.064303
   2 C :    0.057629
   3 C :    0.054508
   4 C :    0.057630
   5 C :    0.064300
   6 C :   -0.014703
   7 C :    0.111688
   8 C :    0.111683
   9 H :   -0.027410
  10 H :   -0.027086
  11 H :   -0.027976
  12 H :   -0.027601
  13 H :   -0.027084
  14 H :   -0.027412
  15 H :   -0.025822
  16 H :   -0.028273
  17 H :   -0.028271
  18 H :   -0.025819
  19 H :   -0.024459
  20 H :   -0.025265
  21 H :   -0.028689
  22 H :   -0.028686
  23 H :   -0.033116
  24 H :   -0.028691
  25 H :   -0.033114
  26 H :   -0.028690

  Mayer bond orders larger than 0.1
B(  0-C ,  1-C ) :   0.9504 B(  0-C ,  5-C ) :   0.9504 B(  0-C ,  6-C ) :   0.9805
B(  0-C , 19-H ) :   0.9679 B(  1-C ,  2-C ) :   0.9647 B(  1-C , 15-H ) :   0.9783
B(  1-C , 16-H ) :   0.9957 B(  2-C ,  3-C ) :   0.9489 B(  2-C ,  9-H ) :   0.9962
B(  2-C , 10-H ) :   0.9843 B(  3-C ,  4-C ) :   0.9489 B(  3-C , 11-H ) :   0.9959
B(  3-C , 12-H ) :   0.9848 B(  4-C ,  5-C ) :   0.9647 B(  4-C , 13-H ) :   0.9843
B(  4-C , 14-H ) :   0.9962 B(  5-C , 17-H ) :   0.9957 B(  5-C , 18-H ) :   0.9783
B(  6-C ,  7-C ) :   0.9539 B(  6-C ,  8-C ) :   0.9539 B(  6-C , 20-H ) :   0.9728
B(  7-C , 24-H ) :   0.9890 B(  7-C , 25-H ) :   0.9857 B(  7-C , 26-H ) :   0.9787
B(  8-C , 21-H ) :   0.9890 B(  8-C , 22-H ) :   0.9787 B(  8-C , 23-H ) :   0.9857

E(0)                                       ...   -351.422504459
E(0)                                       ...   -351.422504459
E(CORR)(strong-pairs)                      ...     -1.662361639
E(CORR)(weak-pairs)                        ...     -0.002040989
E(CORR)(corrected)                         ...     -1.664402628
E(TOT)                                     ...   -353.086907087
E(CCSD(T))                                 ...   -353.153717533
FINAL SINGLE POINT ENERGY      -353.153717533035

DIPOLE MOMENT
-------------
                                X             Y             Z
Electronic contribution:      2.55270      -0.00016      -0.30469
Nuclear contribution   :     -2.53006       0.00015       0.28870
                        -----------------------------------------
Total Dipole Moment    :      0.02264      -0.00000      -0.01599
                        -----------------------------------------
Magnitude (a.u.)       :      0.02772
Magnitude (Debye)      :      0.07045

Rotational constants in cm-1:     0.094978     0.034298     0.026913
Rotational constants in MHz :  2847.381200  1028.240961   806.835128

                             ****ORCA TERMINATED NORMALLY****
TOTAL RUN TIME: 0 days 0 hours 31 minutes 3 seconds 454 msec
