                         Program Version 4.1.x  -  STABLE  -
|  1> ! RHF DLPNO-CCSD(T) cc-pVTZ RIJK cc-pVTZ/JK cc-pVTZ/C
|  2> ! KDIIS SOSCF TightSCF TightPNO
|  3>
|  4> %pal nprocs 8 end
|  5>
|  6> %maxcore 8000
|  7>
|  8> %scf maxiter 300
|  9>      shift shift 0.2 erroff 0.1 end
| 10> end
| 11>
| 12> * xyzfile 0 1 Me3SiO_cycl_ax.xyz
| 13>
| 14>
| 15>                          ****END OF INPUT****

CARTESIAN COORDINATES (ANGSTROEM)
---------------------------------
  C      0.702770   -0.049030   -0.826860
  C      1.535860    1.241520   -0.773850
  C      2.447780    1.289940    0.462490
  C      3.346580    0.044970    0.544340
  C      2.514260   -1.247250    0.507670
  C      1.602670   -1.290880   -0.729150
  O     -0.230670   -0.060990    0.263600
  Si    -1.902540   -0.001000    0.128200
  C     -2.534060   -1.474510   -0.874040
  C     -2.531370   -0.071880    1.898320
  C     -2.444200    1.601880   -0.716080
  H      1.824340    1.347630    1.363340
  H      3.058440    2.200970    0.438450
  H      4.049780    0.048440   -0.302400
  H      3.956440    0.077150    1.455790
  H      3.171670   -2.125410    0.515670
  H      1.893260   -1.305430    1.410130
  H      0.863280    2.107030   -0.793970
  H      2.148540    1.290440   -1.685910
  H      2.217820   -1.340150   -1.639440
  H      0.974990   -2.189590   -0.717200
  H      0.158780   -0.081140   -1.783760
  H     -3.626200   -0.026680    1.932880
  H     -2.215650   -0.999640    2.387880
  H     -2.139710    0.765970    2.485470
  H     -3.537210    1.653640   -0.791980
  H     -2.106030    2.478550   -0.152200
  H     -2.042050    1.682600   -1.732850
  H     -3.627090   -1.448470   -0.961390
  H     -2.125560   -1.480260   -1.891460
  H     -2.258590   -2.422250   -0.397790

 Total Charge           Charge          ....    0
 Multiplicity           Mult            ....    1
 Number of Electrons    NEL             ....   96
 Basis Dimension        Dim             ....  614

ORBITAL ENERGIES
----------------

  NO   OCC          E(Eh)            E(eV)
   0   2.0000     -68.772664     -1871.3993
   1   2.0000     -20.527108      -558.5710
   2   2.0000     -11.278407      -306.9010
   3   2.0000     -11.214539      -305.1631
   4   2.0000     -11.214166      -305.1530
   5   2.0000     -11.212379      -305.1043
   6   2.0000     -11.210935      -305.0650
   7   2.0000     -11.210576      -305.0553
   8   2.0000     -11.197176      -304.6907
   9   2.0000     -11.197141      -304.6897
  10   2.0000     -11.194073      -304.6062
  11   2.0000      -6.115766      -166.4185
  12   2.0000      -4.222770      -114.9074
  13   2.0000      -4.222268      -114.8938
  14   2.0000      -4.222098      -114.8891
  15   2.0000      -1.326647       -36.0999
  16   2.0000      -1.097371       -29.8610
  17   2.0000      -0.997731       -27.1496
  18   2.0000      -0.988508       -26.8987
  19   2.0000      -0.956963       -26.0403
  20   2.0000      -0.920562       -25.0498
  21   2.0000      -0.919510       -25.0211
  22   2.0000      -0.829070       -22.5601
  23   2.0000      -0.821475       -22.3535
  24   2.0000      -0.745432       -20.2842
  25   2.0000      -0.681431       -18.5427
  26   2.0000      -0.643583       -17.5128
  27   2.0000      -0.613345       -16.6900
  28   2.0000      -0.606904       -16.5147
  29   2.0000      -0.583782       -15.8855
  30   2.0000      -0.565928       -15.3997
  31   2.0000      -0.560120       -15.2416
  32   2.0000      -0.556070       -15.1314
  33   2.0000      -0.546193       -14.8627
  34   2.0000      -0.541946       -14.7471
  35   2.0000      -0.532716       -14.4959
  36   2.0000      -0.531838       -14.4720
  37   2.0000      -0.527082       -14.3426
  38   2.0000      -0.519792       -14.1443
  39   2.0000      -0.512846       -13.9552
  40   2.0000      -0.488645       -13.2967
  41   2.0000      -0.478653       -13.0248
  42   2.0000      -0.462949       -12.5975
  43   2.0000      -0.451104       -12.2752
  44   2.0000      -0.427514       -11.6332
  45   2.0000      -0.425098       -11.5675
  46   2.0000      -0.414360       -11.2753
  47   2.0000      -0.397573       -10.8185
  48   0.0000       0.121434         3.3044
  49   0.0000       0.147270         4.0074
  50   0.0000       0.155054         4.2192
  51   0.0000       0.159903         4.3512
  52   0.0000       0.177905         4.8411

MULLIKEN ATOMIC CHARGES
-----------------------
   0 C :    0.105537
   1 C :   -0.190392
   2 C :   -0.187908
   3 C :   -0.198267
   4 C :   -0.188877
   5 C :   -0.185468
   6 O :   -0.494485
   7 Si:    0.581843
   8 C :   -0.430900
   9 C :   -0.404297
  10 C :   -0.434983
  11 H :    0.095553
  12 H :    0.106846
  13 H :    0.081076
  14 H :    0.106570
  15 H :    0.106608
  16 H :    0.096353
  17 H :    0.108443
  18 H :    0.095047
  19 H :    0.092541
  20 H :    0.106030
  21 H :    0.103796
  22 H :    0.094637
  23 H :    0.103377
  24 H :    0.103602
  25 H :    0.107952
  26 H :    0.106539
  27 H :    0.100668
  28 H :    0.105545
  29 H :    0.100851
  30 H :    0.106162
Sum of atomic charges:    0.0000000

LOEWDIN ATOMIC CHARGES
----------------------
   0 C :   -0.121301
   1 C :    0.058950
   2 C :    0.060677
   3 C :    0.056676
   4 C :    0.060621
   5 C :    0.059451
   6 O :    0.174748
   7 Si:    0.190483
   8 C :    0.014140
   9 C :    0.021082
  10 C :    0.013461
  11 H :   -0.025116
  12 H :   -0.028912
  13 H :   -0.029269
  14 H :   -0.027823
  15 H :   -0.028938
  16 H :   -0.024833
  17 H :   -0.026231
  18 H :   -0.023855
  19 H :   -0.024201
  20 H :   -0.025939
  21 H :   -0.032528
  22 H :   -0.033619
  23 H :   -0.030235
  24 H :   -0.030162
  25 H :   -0.031619
  26 H :   -0.032328
  27 H :   -0.034655
  28 H :   -0.031736
  29 H :   -0.034855
  30 H :   -0.032134

  Mayer bond orders larger than 0.1
B(  0-C ,  1-C ) :   0.9622 B(  0-C ,  5-C ) :   0.9630 B(  0-C ,  6-O ) :   0.8613
B(  0-C , 21-H ) :   0.9948 B(  1-C ,  2-C ) :   0.9503 B(  1-C , 17-H ) :   0.9905
B(  1-C , 18-H ) :   0.9867 B(  2-C ,  3-C ) :   0.9510 B(  2-C , 11-H ) :   0.9793
B(  2-C , 12-H ) :   0.9949 B(  3-C ,  4-C ) :   0.9507 B(  3-C , 13-H ) :   0.9864
B(  3-C , 14-H ) :   0.9948 B(  4-C ,  5-C ) :   0.9512 B(  4-C , 15-H ) :   0.9948
B(  4-C , 16-H ) :   0.9791 B(  5-C , 19-H ) :   0.9866 B(  5-C , 20-H ) :   0.9913
B(  6-O ,  7-Si) :   1.1331 B(  7-Si,  8-C ) :   1.0069 B(  7-Si,  9-C ) :   1.0242
B(  7-Si, 10-C ) :   1.0049 B(  8-C , 28-H ) :   0.9589 B(  8-C , 29-H ) :   0.9651
B(  8-C , 30-H ) :   0.9654 B(  9-C , 22-H ) :   0.9591 B(  9-C , 23-H ) :   0.9649
B(  9-C , 24-H ) :   0.9649 B( 10-C , 25-H ) :   0.9594 B( 10-C , 26-H ) :   0.9653
B( 10-C , 27-H ) :   0.9648

E(0)                                       ...   -716.508209034
E(0)                                       ...   -716.508209034
E(CORR)(strong-pairs)                      ...     -2.028708052
E(CORR)(weak-pairs)                        ...     -0.002740344
E(CORR)(corrected)                         ...     -2.031448395
E(TOT)                                     ...   -718.539657429
E(CCSD(T))                                 ...   -718.619631039
FINAL SINGLE POINT ENERGY      -718.619631039184

DIPOLE MOMENT
-------------
                                X             Y             Z
Electronic contribution:     -0.88584      -0.22431       0.55487
Nuclear contribution   :      0.78575       0.24322      -0.90422
                        -----------------------------------------
Total Dipole Moment    :     -0.10009       0.01891      -0.34935
                        -----------------------------------------
Magnitude (a.u.)       :      0.36390
Magnitude (Debye)      :      0.92496

Rotational constants in cm-1:     0.053420     0.017839     0.016910
Rotational constants in MHz :  1601.499218   534.813775   506.958740

                             ****ORCA TERMINATED NORMALLY****
TOTAL RUN TIME: 0 days 0 hours 47 minutes 43 seconds 147 msec
