                         Program Version 4.1.x  -  STABLE  -
|  1> ! RHF DLPNO-CCSD(T) cc-pVTZ RIJK cc-pVTZ/JK cc-pVTZ/C
|  2> ! KDIIS SOSCF TightSCF TightPNO
|  3>
|  4> %pal nprocs 8 end
|  5>
|  6> %maxcore 8000
|  7>
|  8> %scf maxiter 300
|  9>      shift shift 0.2 erroff 0.1 end
| 10> end
| 11>
| 12> * xyzfile 0 1 Me3SiO_cycl_eq.xyz
| 13>
| 14>
| 15>                          ****END OF INPUT****

CARTESIAN COORDINATES (ANGSTROEM)
---------------------------------
  C      0.728610   -0.238140    0.103140
  C      1.291440    1.125060   -0.324930
  C      2.710250    1.352370    0.225650
  C      3.660670    0.210940   -0.168270
  C      3.094500   -1.154620    0.252140
  C      1.676570   -1.372060   -0.300470
  O     -0.544200   -0.490620   -0.491130
  Si    -2.069690   -0.005790    0.014280
  C     -2.486250    1.716760   -0.640800
  C     -3.243800   -1.274050   -0.728130
  C     -2.171810   -0.005660    1.902020
  H      2.668380    1.424720    1.322590
  H      3.098290    2.314010   -0.132020
  H      3.806420    0.221980   -1.258220
  H      4.648880    0.368340    0.281750
  H      3.754460   -1.962480   -0.086760
  H      3.072280   -1.213770    1.350480
  H      0.621540    1.926830    0.008810
  H      1.303840    1.158240   -1.423110
  H      1.702570   -1.417380   -1.397930
  H      1.263230   -2.326350    0.046490
  H      0.628680   -0.246480    1.201640
  H     -4.290090   -1.039300   -0.499010
  H     -3.136980   -1.305080   -1.818410
  H     -3.028600   -2.277730   -0.344940
  H     -3.189340    0.243720    2.227200
  H     -1.922920   -0.988420    2.319020
  H     -1.497610    0.731870    2.352920
  H     -3.527340    1.979330   -0.414610
  H     -1.847050    2.490200   -0.200000
  H     -2.360570    1.760170   -1.728820

 Total Charge           Charge          ....    0
 Multiplicity           Mult            ....    1
 Number of Electrons    NEL             ....   96
 Basis Dimension        Dim             ....  614

ORBITAL ENERGIES
----------------

  NO   OCC          E(Eh)            E(eV)
   0   2.0000     -68.772178     -1871.3861
   1   2.0000     -20.526528      -558.5552
   2   2.0000     -11.276736      -306.8556
   3   2.0000     -11.220341      -305.3210
   4   2.0000     -11.218362      -305.2671
   5   2.0000     -11.217643      -305.2476
   6   2.0000     -11.215995      -305.2028
   7   2.0000     -11.211866      -305.0904
   8   2.0000     -11.198203      -304.7186
   9   2.0000     -11.194715      -304.6237
  10   2.0000     -11.192019      -304.5503
  11   2.0000      -6.115147      -166.4016
  12   2.0000      -4.222214      -114.8923
  13   2.0000      -4.221649      -114.8769
  14   2.0000      -4.221476      -114.8722
  15   2.0000      -1.326270       -36.0896
  16   2.0000      -1.104584       -30.0572
  17   2.0000      -1.001372       -27.2487
  18   2.0000      -0.988782       -26.9061
  19   2.0000      -0.955743       -26.0071
  20   2.0000      -0.920622       -25.0514
  21   2.0000      -0.917053       -24.9543
  22   2.0000      -0.834300       -22.7025
  23   2.0000      -0.820773       -22.3344
  24   2.0000      -0.755296       -20.5526
  25   2.0000      -0.685481       -18.6529
  26   2.0000      -0.645833       -17.5740
  27   2.0000      -0.609267       -16.5790
  28   2.0000      -0.603254       -16.4154
  29   2.0000      -0.587786       -15.9945
  30   2.0000      -0.570512       -15.5244
  31   2.0000      -0.562026       -15.2935
  32   2.0000      -0.556609       -15.1461
  33   2.0000      -0.550405       -14.9773
  34   2.0000      -0.545301       -14.8384
  35   2.0000      -0.535147       -14.5621
  36   2.0000      -0.528414       -14.3789
  37   2.0000      -0.526617       -14.3300
  38   2.0000      -0.522944       -14.2300
  39   2.0000      -0.512742       -13.9524
  40   2.0000      -0.482960       -13.1420
  41   2.0000      -0.471374       -12.8267
  42   2.0000      -0.463366       -12.6088
  43   2.0000      -0.457564       -12.4509
  44   2.0000      -0.435160       -11.8413
  45   2.0000      -0.427310       -11.6277
  46   2.0000      -0.416462       -11.3325
  47   2.0000      -0.396919       -10.8007
  48   0.0000       0.124268         3.3815
  49   0.0000       0.144442         3.9305
  50   0.0000       0.150803         4.1036
  51   0.0000       0.157898         4.2966
  52   0.0000       0.178115         4.8468

MULLIKEN ATOMIC CHARGES
-----------------------
   0 C :    0.164502
   1 C :   -0.205810
   2 C :   -0.203951
   3 C :   -0.188741
   4 C :   -0.209627
   5 C :   -0.189435
   6 O :   -0.477579
   7 Si:    0.583620
   8 C :   -0.427750
   9 C :   -0.400892
  10 C :   -0.445307
  11 H :    0.088936
  12 H :    0.110765
  13 H :    0.087515
  14 H :    0.108600
  15 H :    0.109745
  16 H :    0.087198
  17 H :    0.106349
  18 H :    0.096313
  19 H :    0.092179
  20 H :    0.106423
  21 H :    0.079019
  22 H :    0.093147
  23 H :    0.103918
  24 H :    0.100997
  25 H :    0.109229
  26 H :    0.107674
  27 H :    0.101671
  28 H :    0.102904
  29 H :    0.101481
  30 H :    0.106907
Sum of atomic charges:    0.0000000

LOEWDIN ATOMIC CHARGES
----------------------
   0 C :   -0.132426
   1 C :    0.059119
   2 C :    0.059717
   3 C :    0.056571
   4 C :    0.058402
   5 C :    0.059756
   6 O :    0.183088
   7 Si:    0.195939
   8 C :    0.012742
   9 C :    0.019680
  10 C :    0.011857
  11 H :   -0.027407
  12 H :   -0.025944
  13 H :   -0.026366
  14 H :   -0.027224
  15 H :   -0.026025
  16 H :   -0.027715
  17 H :   -0.028500
  18 H :   -0.022482
  19 H :   -0.023102
  20 H :   -0.024987
  21 H :   -0.032014
  22 H :   -0.034658
  23 H :   -0.029549
  24 H :   -0.031229
  25 H :   -0.030356
  26 H :   -0.031687
  27 H :   -0.035216
  28 H :   -0.032411
  29 H :   -0.037024
  30 H :   -0.030550

  Mayer bond orders larger than 0.1
B(  0-C ,  1-C ) :   0.9511 B(  0-C ,  5-C ) :   0.9703 B(  0-C ,  6-O ) :   0.9028
B(  0-C , 21-H ) :   0.9760 B(  1-C ,  2-C ) :   0.9493 B(  1-C , 17-H ) :   0.9906
B(  1-C , 18-H ) :   0.9800 B(  2-C ,  3-C ) :   0.9493 B(  2-C , 11-H ) :   0.9842
B(  2-C , 12-H ) :   0.9931 B(  3-C ,  4-C ) :   0.9456 B(  3-C , 13-H ) :   0.9841
B(  3-C , 14-H ) :   0.9948 B(  4-C ,  5-C ) :   0.9414 B(  4-C , 15-H ) :   0.9924
B(  4-C , 16-H ) :   0.9842 B(  5-C , 19-H ) :   0.9836 B(  5-C , 20-H ) :   0.9939
B(  6-O ,  7-Si) :   1.1485 B(  7-Si,  8-C ) :   1.0042 B(  7-Si,  9-C ) :   1.0210
B(  7-Si, 10-C ) :   1.0040 B(  8-C , 28-H ) :   0.9591 B(  8-C , 29-H ) :   0.9654
B(  8-C , 30-H ) :   0.9650 B(  9-C , 22-H ) :   0.9592 B(  9-C , 23-H ) :   0.9639
B(  9-C , 24-H ) :   0.9657 B( 10-C , 25-H ) :   0.9594 B( 10-C , 26-H ) :   0.9635
B( 10-C , 27-H ) :   0.9635

E(0)                                       ...   -716.508171743
E(0)                                       ...   -716.508171743
E(CORR)(strong-pairs)                      ...     -2.028015689
E(CORR)(weak-pairs)                        ...     -0.002650749
E(CORR)(corrected)                         ...     -2.030666438
E(TOT)                                     ...   -718.538838181
E(CCSD(T))                                 ...   -718.618718299
FINAL SINGLE POINT ENERGY      -718.618718298972

DIPOLE MOMENT
-------------
                                X             Y             Z
Electronic contribution:     -1.82394      -1.70074      -1.55797
Nuclear contribution   :      1.97213       1.91970       1.88142
                        -----------------------------------------
Total Dipole Moment    :      0.14819       0.21896       0.32345
                        -----------------------------------------
Magnitude (a.u.)       :      0.41776
Magnitude (Debye)      :      1.06185

Rotational constants in cm-1:     0.060032     0.015863     0.014652
Rotational constants in MHz :  1799.715380   475.553303   439.250270

                             ****ORCA TERMINATED NORMALLY****
TOTAL RUN TIME: 0 days 0 hours 44 minutes 3 seconds 62 msec
