                         Program Version 4.1.x  -  STABLE  -
|  1> ! RHF DLPNO-CCSD(T) cc-pVTZ RIJK cc-pVTZ/JK cc-pVTZ/C
|  2> ! KDIIS SOSCF TightSCF TightPNO
|  3>
|  4> %pal nprocs 8 end
|  5>
|  6> %maxcore 8000
|  7>
|  8> %scf maxiter 300
|  9>      shift shift 0.2 erroff 0.1 end
| 10> end
| 11>
| 12> * xyzfile 0 1 Me_acetate_E.xyz
| 13>
| 14>
| 15>                          ****END OF INPUT****

CARTESIAN COORDINATES (ANGSTROEM)
---------------------------------
  C      0.670920    1.348130   -0.000060
  C      0.604630   -0.166250   -0.000470
  O     -0.624570   -0.753430   -0.000510
  C     -1.825950    0.027280    0.000320
  O      1.583250   -0.876470    0.000410
  H     -2.641580   -0.696100    0.001710
  H     -1.899880    0.652780    0.895830
  H     -1.901860    0.651560   -0.895900
  H      0.178140    1.767100    0.883350
  H      1.719950    1.641090    0.000150
  H      0.178190    1.767780   -0.883180

 Total Charge           Charge          ....    0
 Multiplicity           Mult            ....    1
 Number of Electrons    NEL             ....   40
 Basis Dimension        Dim             ....  234

ORBITAL ENERGIES
----------------

  NO   OCC          E(Eh)            E(eV)
   0   2.0000     -20.600493      -560.5679
   1   2.0000     -20.534578      -558.7743
   2   2.0000     -11.381776      -309.7139
   3   2.0000     -11.302493      -307.5565
   4   2.0000     -11.252970      -306.2089
   5   2.0000      -1.447947       -39.4006
   6   2.0000      -1.352723       -36.8095
   7   2.0000      -1.021794       -27.8044
   8   2.0000      -0.976361       -26.5681
   9   2.0000      -0.780193       -21.2301
  10   2.0000      -0.694219       -18.8907
  11   2.0000      -0.679320       -18.4852
  12   2.0000      -0.673317       -18.3219
  13   2.0000      -0.596266       -16.2252
  14   2.0000      -0.592821       -16.1315
  15   2.0000      -0.576187       -15.6789
  16   2.0000      -0.543281       -14.7834
  17   2.0000      -0.520635       -14.1672
  18   2.0000      -0.449833       -12.2406
  19   2.0000      -0.440902       -11.9976
  20   0.0000       0.121352         3.3022
  21   0.0000       0.164813         4.4848
  22   0.0000       0.170543         4.6407
  23   0.0000       0.181421         4.9367
  24   0.0000       0.194920         5.3040

MULLIKEN ATOMIC CHARGES
-----------------------
   0 C :   -0.319393
   1 C :    0.392817
   2 O :   -0.279546
   3 C :   -0.075104
   4 O :   -0.375175
   5 H :    0.135770
   6 H :    0.078892
   7 H :    0.078951
   8 H :    0.106856
   9 H :    0.149076
  10 H :    0.106856
Sum of atomic charges:   -0.0000000

LOEWDIN ATOMIC CHARGES
----------------------
   0 C :    0.106822
   1 C :   -0.430815
   2 O :    0.304937
   3 C :    0.042440
   4 O :    0.117702
   5 H :   -0.022221
   6 H :   -0.037589
   7 H :   -0.037575
   8 H :   -0.017609
   9 H :   -0.008469
  10 H :   -0.017623

  Mayer bond orders larger than 0.1
B(  0-C ,  1-C ) :   0.9499 B(  0-C ,  8-H ) :   0.9631 B(  0-C ,  9-H ) :   0.9713
B(  0-C , 10-H ) :   0.9631 B(  1-C ,  2-O ) :   1.1589 B(  1-C ,  4-O ) :   2.1203
B(  2-O ,  3-C ) :   0.9457 B(  3-C ,  5-H ) :   0.9798 B(  3-C ,  6-H ) :   0.9710
B(  3-C ,  7-H ) :   0.9711

E(0)                                       ...   -266.921243730
E(0)                                       ...   -266.921243730
E(CORR)(strong-pairs)                      ...     -1.000343681
E(CORR)(weak-pairs)                        ...     -0.000754012
E(CORR)(corrected)                         ...     -1.001097693
E(TOT)                                     ...   -267.922341422
E(CCSD(T))                                 ...   -267.962030248
FINAL SINGLE POINT ENERGY      -267.962030247544

DIPOLE MOMENT
-------------
                                X             Y             Z
Electronic contribution:      3.11802      -4.35588      -0.00211
Nuclear contribution   :     -4.41325       5.83967       0.00200
                        -----------------------------------------
Total Dipole Moment    :     -1.29523       1.48379      -0.00011
                        -----------------------------------------
Magnitude (a.u.)       :      1.96958
Magnitude (Debye)      :      5.00627

Rotational constants in cm-1:     0.298102     0.144588     0.101090
Rotational constants in MHz :  8936.885905  4334.639824  3030.595676

                             ****ORCA TERMINATED NORMALLY****
TOTAL RUN TIME: 0 days 0 hours 2 minutes 41 seconds 156 msec
