                         Program Version 4.1.x  -  STABLE  -
|  1> ! RHF DLPNO-CCSD(T) cc-pVTZ RIJK cc-pVTZ/JK cc-pVTZ/C
|  2> ! KDIIS SOSCF TightSCF TightPNO
|  3>
|  4> %pal nprocs 8 end
|  5>
|  6> %maxcore 8000
|  7>
|  8> %scf maxiter 300
|  9>      shift shift 0.2 erroff 0.1 end
| 10> end
| 11>
| 12> * xyzfile 0 1 Me_acetate_Z.xyz
| 13>
| 14>
| 15>                          ****END OF INPUT****

CARTESIAN COORDINATES (ANGSTROEM)
---------------------------------
  C     -1.804670   -0.524770   -0.000040
  C     -0.461980    0.164350    0.000110
  O      0.561040   -0.721740    0.000020
  C      1.885020   -0.152610   -0.000030
  O     -0.299340    1.367970   -0.000020
  H      2.565530   -1.003480   -0.000240
  H      2.034450    0.463430   -0.890010
  H      2.034630    0.463140    0.890130
  H     -1.706150   -1.610660   -0.000400
  H     -2.366070   -0.202310    0.881620
  H     -2.366200   -0.201700   -0.881390

 Total Charge           Charge          ....    0
 Multiplicity           Mult            ....    1
 Number of Electrons    NEL             ....   40
 Basis Dimension        Dim             ....  234

ORBITAL ENERGIES
----------------

  NO   OCC          E(Eh)            E(eV)
   0   2.0000     -20.602811      -560.6310
   1   2.0000     -20.538427      -558.8790
   2   2.0000     -11.380519      -309.6797
   3   2.0000     -11.286089      -307.1101
   4   2.0000     -11.242175      -305.9151
   5   2.0000      -1.453200       -39.5436
   6   2.0000      -1.351270       -36.7699
   7   2.0000      -1.030750       -28.0481
   8   2.0000      -0.947155       -25.7734
   9   2.0000      -0.775445       -21.1009
  10   2.0000      -0.689893       -18.7729
  11   2.0000      -0.673295       -18.3213
  12   2.0000      -0.671604       -18.2753
  13   2.0000      -0.593374       -16.1465
  14   2.0000      -0.588807       -16.0222
  15   2.0000      -0.557093       -15.1593
  16   2.0000      -0.526665       -14.3313
  17   2.0000      -0.520390       -14.1605
  18   2.0000      -0.459079       -12.4922
  19   2.0000      -0.446538       -12.1509
  20   0.0000       0.141885         3.8609
  21   0.0000       0.159105         4.3295
  22   0.0000       0.168074         4.5735
  23   0.0000       0.203483         5.5371
  24   0.0000       0.220115         5.9896

MULLIKEN ATOMIC CHARGES
-----------------------
   0 C :   -0.266457
   1 C :    0.405066
   2 O :   -0.311419
   3 C :   -0.055493
   4 O :   -0.418622
   5 H :    0.108844
   6 H :    0.093966
   7 H :    0.093950
   8 H :    0.118480
   9 H :    0.115830
  10 H :    0.115855
Sum of atomic charges:    0.0000000

LOEWDIN ATOMIC CHARGES
----------------------
   0 C :    0.114946
   1 C :   -0.429475
   2 O :    0.294854
   3 C :    0.058471
   4 O :    0.097144
   5 H :   -0.031688
   6 H :   -0.032106
   7 H :   -0.032104
   8 H :   -0.019139
   9 H :   -0.010455
  10 H :   -0.010449

  Mayer bond orders larger than 0.1
B(  0-C ,  1-C ) :   0.9377 B(  0-C ,  8-H ) :   0.9751 B(  0-C ,  9-H ) :   0.9700
B(  0-C , 10-H ) :   0.9700 B(  1-C ,  2-O ) :   1.1767 B(  1-C ,  4-O ) :   2.0315
B(  2-O ,  3-C ) :   0.9071 B(  3-C ,  5-H ) :   0.9796 B(  3-C ,  6-H ) :   0.9734
B(  3-C ,  7-H ) :   0.9734

E(0)                                       ...   -266.934423725
E(0)                                       ...   -266.934423725
E(CORR)(strong-pairs)                      ...     -0.999093810
E(CORR)(weak-pairs)                        ...     -0.000744668
E(CORR)(corrected)                         ...     -0.999838478
E(TOT)                                     ...   -267.934262203
E(CCSD(T))                                 ...   -267.973781588
FINAL SINGLE POINT ENERGY      -267.973781587892

DIPOLE MOMENT
-------------
                                X             Y             Z
Electronic contribution:     -0.11549       1.31643       0.00034
Nuclear contribution   :      0.20314      -2.11074      -0.00029
                        -----------------------------------------
Total Dipole Moment    :      0.08765      -0.79431       0.00006
                        -----------------------------------------
Magnitude (a.u.)       :      0.79913
Magnitude (Debye)      :      2.03122

Rotational constants in cm-1:     0.341827     0.136706     0.101368
Rotational constants in MHz : 10247.728336  4098.340891  3038.923998

                             ****ORCA TERMINATED NORMALLY****
TOTAL RUN TIME: 0 days 0 hours 2 minutes 41 seconds 368 msec
