                         Program Version 4.1.x  -  STABLE  -
|  1> ! RHF DLPNO-CCSD(T) cc-pVTZ RIJK cc-pVTZ/JK cc-pVTZ/C
|  2> ! KDIIS SOSCF TightSCF TightPNO
|  3>
|  4> %pal nprocs 8 end
|  5>
|  6> %maxcore 8000
|  7>
|  8> %scf maxiter 300
|  9>      shift shift 0.2 erroff 0.1 end
| 10> end
| 11>
| 12> * xyzfile 0 1 me_cyclohexanecarboxylate_eq.xyz
| 13>
| 14>
| 15>                          ****END OF INPUT****

CARTESIAN COORDINATES (ANGSTROEM)
---------------------------------
  C     -0.680750    1.176910    0.424550
  C     -0.052760   -0.030210   -0.318140
  C     -0.896260   -1.302140   -0.105530
  C     -2.357520   -1.081080   -0.525510
  C     -2.982750    0.121260    0.198640
  C     -2.141860    1.391860    0.000980
  C      1.374310   -0.228180    0.156120
  O      2.264540    0.368260   -0.673780
  C      3.647650    0.287070   -0.278650
  O      1.706890   -0.816980    1.166410
  H     -0.461050   -2.136020   -0.669600
  H     -0.846890   -1.581480    0.953880
  H     -2.939450   -1.989110   -0.326180
  H     -2.404500   -0.914070   -1.611680
  H     -3.054240   -0.101010    1.273120
  H     -4.007560    0.286750   -0.155650
  H     -0.015070    0.209910   -1.387980
  H     -2.570720    2.226060    0.569610
  H     -2.172100    1.687020   -1.057910
  H     -0.633020    0.986690    1.505110
  H     -0.091220    2.080650    0.229700
  H      4.201950    0.817940   -1.052290
  H      3.967340   -0.756200   -0.221490
  H      3.794650    0.759720    0.695590

 Total Charge           Charge          ....    0
 Multiplicity           Mult            ....    1
 Number of Electrons    NEL             ....   78
 Basis Dimension        Dim             ....  496

ORBITAL ENERGIES
----------------

  NO   OCC          E(Eh)            E(eV)
   0   2.0000     -20.598671      -560.5183
   1   2.0000     -20.536202      -558.8185
   2   2.0000     -11.371499      -309.4342
   3   2.0000     -11.283551      -307.0410
   4   2.0000     -11.242524      -305.9246
   5   2.0000     -11.230237      -305.5903
   6   2.0000     -11.224443      -305.4326
   7   2.0000     -11.223229      -305.3996
   8   2.0000     -11.222089      -305.3686
   9   2.0000     -11.221096      -305.3415
  10   2.0000      -1.448905       -39.4267
  11   2.0000      -1.347383       -36.6641
  12   2.0000      -1.124184       -30.5906
  13   2.0000      -1.032013       -28.0825
  14   2.0000      -1.007301       -27.4101
  15   2.0000      -0.963931       -26.2299
  16   2.0000      -0.858406       -23.3584
  17   2.0000      -0.837679       -22.7944
  18   2.0000      -0.775412       -21.1000
  19   2.0000      -0.750028       -20.4093
  20   2.0000      -0.697269       -18.9737
  21   2.0000      -0.669288       -18.2123
  22   2.0000      -0.663160       -18.0455
  23   2.0000      -0.635402       -17.2902
  24   2.0000      -0.605414       -16.4741
  25   2.0000      -0.602260       -16.3883
  26   2.0000      -0.599396       -16.3104
  27   2.0000      -0.556851       -15.1527
  28   2.0000      -0.545747       -14.8505
  29   2.0000      -0.531184       -14.4542
  30   2.0000      -0.522491       -14.2177
  31   2.0000      -0.508123       -13.8267
  32   2.0000      -0.492525       -13.4023
  33   2.0000      -0.488637       -13.2965
  34   2.0000      -0.463964       -12.6251
  35   2.0000      -0.458892       -12.4871
  36   2.0000      -0.454038       -12.3550
  37   2.0000      -0.434208       -11.8154
  38   2.0000      -0.423500       -11.5240
  39   0.0000       0.137005         3.7281
  40   0.0000       0.151789         4.1304
  41   0.0000       0.156060         4.2466
  42   0.0000       0.163242         4.4420
  43   0.0000       0.174972         4.7612

MULLIKEN ATOMIC CHARGES
-----------------------
   0 C :   -0.207456
   1 C :   -0.060757
   2 C :   -0.195273
   3 C :   -0.204186
   4 C :   -0.189963
   5 C :   -0.205531
   6 C :    0.394040
   7 O :   -0.321081
   8 C :   -0.066913
   9 O :   -0.428045
  10 H :    0.111225
  11 H :    0.114846
  12 H :    0.112740
  13 H :    0.087183
  14 H :    0.090798
  15 H :    0.110290
  16 H :    0.130943
  17 H :    0.112980
  18 H :    0.090449
  19 H :    0.108965
  20 H :    0.117361
  21 H :    0.109902
  22 H :    0.094570
  23 H :    0.092916
Sum of atomic charges:    0.0000000

LOEWDIN ATOMIC CHARGES
----------------------
   0 C :    0.072700
   1 C :   -0.017840
   2 C :    0.070600
   3 C :    0.059287
   4 C :    0.058078
   5 C :    0.059766
   6 C :   -0.408978
   7 O :    0.297623
   8 C :    0.056076
   9 O :    0.102163
  10 H :   -0.023050
  11 H :   -0.018453
  12 H :   -0.024634
  13 H :   -0.026841
  14 H :   -0.025313
  15 H :   -0.026383
  16 H :   -0.014268
  17 H :   -0.024537
  18 H :   -0.025851
  19 H :   -0.019509
  20 H :   -0.023432
  21 H :   -0.032134
  22 H :   -0.032361
  23 H :   -0.032708

  Mayer bond orders larger than 0.1
B(  0-C ,  1-C ) :   0.9383 B(  0-C ,  5-C ) :   0.9525 B(  0-C , 19-H ) :   0.9763
B(  0-C , 20-H ) :   0.9892 B(  1-C ,  2-C ) :   0.9444 B(  1-C ,  6-C ) :   0.9502
B(  1-C , 16-H ) :   0.9694 B(  2-C ,  3-C ) :   0.9511 B(  2-C , 10-H ) :   0.9925
B(  2-C , 11-H ) :   0.9755 B(  3-C ,  4-C ) :   0.9468 B(  3-C , 12-H ) :   0.9947
B(  3-C , 13-H ) :   0.9826 B(  4-C ,  5-C ) :   0.9472 B(  4-C , 14-H ) :   0.9839
B(  4-C , 15-H ) :   0.9949 B(  5-C , 17-H ) :   0.9934 B(  5-C , 18-H ) :   0.9836
B(  6-C ,  7-O ) :   1.1800 B(  6-C ,  9-O ) :   2.0053 B(  7-O ,  8-C ) :   0.9147
B(  8-C , 21-H ) :   0.9801 B(  8-C , 22-H ) :   0.9740 B(  8-C , 23-H ) :   0.9732

E(0)                                       ...   -461.008354587
E(0)                                       ...   -461.008354587
E(CORR)(strong-pairs)                      ...     -1.887203657
E(CORR)(weak-pairs)                        ...     -0.002347652
E(CORR)(corrected)                         ...     -1.889551309
E(TOT)                                     ...   -462.897905896
E(CCSD(T))                                 ...   -462.975707866
FINAL SINGLE POINT ENERGY      -462.975707865510

DIPOLE MOMENT
-------------
                                X             Y             Z
Electronic contribution:      7.23536      -1.18119       0.69345
Nuclear contribution   :     -7.38564       1.61715      -1.28568
                        -----------------------------------------
Total Dipole Moment    :     -0.15028       0.43596      -0.59223
                        -----------------------------------------
Magnitude (a.u.)       :      0.75059
Magnitude (Debye)      :      1.90784

Rotational constants in cm-1:     0.101098     0.023864     0.021835
Rotational constants in MHz :  3030.845936   715.412028   654.609508

                             ****ORCA TERMINATED NORMALLY****
TOTAL RUN TIME: 0 days 0 hours 33 minutes 25 seconds 427 msec
