                         Program Version 4.1.x  -  STABLE  -
|  1> ! RHF DLPNO-CCSD(T) cc-pVTZ RIJK cc-pVTZ/JK cc-pVTZ/C
|  2> ! KDIIS SOSCF TightSCF TightPNO
|  3>
|  4> %pal nprocs 8 end
|  5>
|  6> %maxcore 8000
|  7>
|  8> %scf maxiter 300
|  9>      shift shift 0.2 erroff 0.1 end
| 10> end
| 11>
| 12> * xyzfile 0 1 me_cyclohexanecarboxylate_ax.xyz
| 13>
| 14>
| 15>                          ****END OF INPUT****

CARTESIAN COORDINATES (ANGSTROEM)
---------------------------------
  C      1.201600   -1.176770    0.843510
  C      0.102850   -0.108170    1.002820
  C      0.668420    1.313520    0.757750
  C      1.408530    1.420900   -0.584820
  C      2.519670    0.365360   -0.698020
  C      1.968270   -1.053340   -0.484720
  C     -1.112880   -0.411060    0.131850
  O     -2.068460    0.540780    0.267110
  C     -3.281710    0.327340   -0.478500
  O     -1.260810   -1.387690   -0.576360
  H     -0.135730    2.052230    0.822180
  H      1.372490    1.534060    1.571580
  H      1.825900    2.429440   -0.694130
  H      0.695140    1.289970   -1.411610
  H      3.291640    0.575910    0.057340
  H      3.012450    0.436620   -1.675460
  H     -0.280960   -0.139120    2.032600
  H      2.786700   -1.783520   -0.502630
  H      1.296260   -1.314330   -1.310960
  H      1.904860   -1.054690    1.678870
  H      0.764780   -2.176200    0.934150
  H     -3.922100    1.176310   -0.240070
  H     -3.755070   -0.610260   -0.176950
  H     -3.070760    0.292210   -1.550090

 Total Charge           Charge          ....    0
 Multiplicity           Mult            ....    1
 Number of Electrons    NEL             ....   78
 Basis Dimension        Dim             ....  496

ORBITAL ENERGIES
----------------

  NO   OCC          E(Eh)            E(eV)
   0   2.0000     -20.598251      -560.5069
   1   2.0000     -20.538524      -558.8816
   2   2.0000     -11.373563      -309.4904
   3   2.0000     -11.284633      -307.0705
   4   2.0000     -11.245201      -305.9975
   5   2.0000     -11.227376      -305.5124
   6   2.0000     -11.220873      -305.3355
   7   2.0000     -11.220321      -305.3205
   8   2.0000     -11.216979      -305.2295
   9   2.0000     -11.212534      -305.1086
  10   2.0000      -1.450540       -39.4712
  11   2.0000      -1.349060       -36.7098
  12   2.0000      -1.121028       -30.5047
  13   2.0000      -1.028061       -27.9750
  14   2.0000      -1.003322       -27.3018
  15   2.0000      -0.963548       -26.2195
  16   2.0000      -0.858071       -23.3493
  17   2.0000      -0.832844       -22.6628
  18   2.0000      -0.784353       -21.3433
  19   2.0000      -0.745882       -20.2965
  20   2.0000      -0.678757       -18.4699
  21   2.0000      -0.670271       -18.2390
  22   2.0000      -0.667861       -18.1734
  23   2.0000      -0.641850       -17.4656
  24   2.0000      -0.610533       -16.6135
  25   2.0000      -0.601848       -16.3771
  26   2.0000      -0.586158       -15.9502
  27   2.0000      -0.552483       -15.0338
  28   2.0000      -0.534487       -14.5441
  29   2.0000      -0.527506       -14.3542
  30   2.0000      -0.522414       -14.2156
  31   2.0000      -0.513030       -13.9602
  32   2.0000      -0.509855       -13.8739
  33   2.0000      -0.483683       -13.1617
  34   2.0000      -0.466787       -12.7019
  35   2.0000      -0.455506       -12.3950
  36   2.0000      -0.433439       -11.7945
  37   2.0000      -0.431557       -11.7433
  38   2.0000      -0.428660       -11.6644
  39   0.0000       0.131145         3.5686
  40   0.0000       0.146641         3.9903
  41   0.0000       0.158198         4.3048
  42   0.0000       0.170073         4.6279
  43   0.0000       0.179135         4.8745

MULLIKEN ATOMIC CHARGES
-----------------------
   0 C :   -0.191545
   1 C :   -0.105519
   2 C :   -0.211522
   3 C :   -0.201536
   4 C :   -0.192025
   5 C :   -0.206831
   6 C :    0.410773
   7 O :   -0.324540
   8 C :   -0.068439
   9 O :   -0.416110
  10 H :    0.127986
  11 H :    0.102977
  12 H :    0.114231
  13 H :    0.091650
  14 H :    0.082924
  15 H :    0.109685
  16 H :    0.135950
  17 H :    0.109283
  18 H :    0.113534
  19 H :    0.102420
  20 H :    0.118534
  21 H :    0.109060
  22 H :    0.096666
  23 H :    0.092396
Sum of atomic charges:   -0.0000000

LOEWDIN ATOMIC CHARGES
----------------------
   0 C :    0.071084
   1 C :   -0.015546
   2 C :    0.069562
   3 C :    0.057805
   4 C :    0.056147
   5 C :    0.062128
   6 C :   -0.408370
   7 O :    0.300388
   8 C :    0.054846
   9 O :    0.106509
  10 H :   -0.025307
  11 H :   -0.022080
  12 H :   -0.025591
  13 H :   -0.026560
  14 H :   -0.028192
  15 H :   -0.026622
  16 H :   -0.008259
  17 H :   -0.026623
  18 H :   -0.023877
  19 H :   -0.023999
  20 H :   -0.020394
  21 H :   -0.031979
  22 H :   -0.032110
  23 H :   -0.032963

  Mayer bond orders larger than 0.1
B(  0-C ,  1-C ) :   0.9494 B(  0-C ,  5-C ) :   0.9449 B(  0-C , 19-H ) :   0.9923
B(  0-C , 20-H ) :   0.9857 B(  1-C ,  2-C ) :   0.9449 B(  1-C ,  6-C ) :   0.9536
B(  1-C , 16-H ) :   0.9789 B(  2-C ,  3-C ) :   0.9471 B(  2-C , 10-H ) :   0.9858
B(  2-C , 11-H ) :   0.9848 B(  3-C ,  4-C ) :   0.9461 B(  3-C , 12-H ) :   0.9926
B(  3-C , 13-H ) :   0.9814 B(  4-C ,  5-C ) :   0.9472 B(  4-C , 14-H ) :   0.9848
B(  4-C , 15-H ) :   0.9949 B(  5-C , 17-H ) :   0.9924 B(  5-C , 18-H ) :   0.9783
B(  6-C ,  7-O ) :   1.1764 B(  6-C ,  9-O ) :   2.0094 B(  7-O ,  8-C ) :   0.9167
B(  8-C , 21-H ) :   0.9801 B(  8-C , 22-H ) :   0.9747 B(  8-C , 23-H ) :   0.9724

E(0)                                       ...   -461.006126721
E(0)                                       ...   -461.006126721
E(CORR)(strong-pairs)                      ...     -1.888505413
E(CORR)(weak-pairs)                        ...     -0.002271815
E(CORR)(corrected)                         ...     -1.890777228
E(TOT)                                     ...   -462.896903948
E(CCSD(T))                                 ...   -462.974853624
FINAL SINGLE POINT ENERGY      -462.974853623615

DIPOLE MOMENT
-------------
                                X             Y             Z
Electronic contribution:     -5.97117      -2.12230       0.81940
Nuclear contribution   :      5.90616       2.77662      -0.48425
                        -----------------------------------------
Total Dipole Moment    :     -0.06501       0.65432       0.33515
                        -----------------------------------------
Magnitude (a.u.)       :      0.73802
Magnitude (Debye)      :      1.87591

Rotational constants in cm-1:     0.078964     0.030276     0.026791
Rotational constants in MHz :  2367.273485   907.645451   803.165635

                             ****ORCA TERMINATED NORMALLY****
TOTAL RUN TIME: 0 days 0 hours 34 minutes 43 seconds 511 msec
