                         Program Version 4.1.x  -  STABLE  -
|  1> ! RHF DLPNO-CCSD(T) cc-pVTZ RIJK cc-pVTZ/JK cc-pVTZ/C
|  2> ! KDIIS SOSCF TightSCF TightPNO
|  3>
|  4> %pal nprocs 8 end
|  5>
|  6> %maxcore 8000
|  7>
|  8> %scf maxiter 300
|  9>      shift shift 0.2 erroff 0.1 end
| 10> end
| 11>
| 12> * xyzfile 0 1 Me_formate_Z.xyz
| 13>
| 14>
| 15>                          ****END OF INPUT****

CARTESIAN COORDINATES (ANGSTROEM)
---------------------------------
  C      1.376810   -0.402440   -0.000010
  O      0.477580    0.727830    0.000010
  C     -0.833110    0.436730   -0.000020
  O     -1.309720   -0.674510    0.000010
  H     -1.413130    1.370500    0.000020
  H      2.378650    0.024830   -0.000130
  H      1.214820   -1.013730    0.891020
  H      1.214600   -1.013880   -0.890880

 Total Charge           Charge          ....    0
 Multiplicity           Mult            ....    1
 Number of Electrons    NEL             ....   32
 Basis Dimension        Dim             ....  176

ORBITAL ENERGIES
----------------

  NO   OCC          E(Eh)            E(eV)
   0   2.0000     -20.612769      -560.9020
   1   2.0000     -20.554218      -559.3087
   2   2.0000     -11.384518      -309.7885
   3   2.0000     -11.293766      -307.3190
   4   2.0000      -1.462078       -39.7852
   5   2.0000      -1.364405       -37.1274
   6   2.0000      -0.988159       -26.8892
   7   2.0000      -0.819437       -22.2980
   8   2.0000      -0.734828       -19.9957
   9   2.0000      -0.677348       -18.4316
  10   2.0000      -0.672594       -18.3022
  11   2.0000      -0.595234       -16.1971
  12   2.0000      -0.552804       -15.0426
  13   2.0000      -0.536351       -14.5949
  14   2.0000      -0.467819       -12.7300
  15   2.0000      -0.463070       -12.6008
  16   0.0000       0.148385         4.0378
  17   0.0000       0.162964         4.4345
  18   0.0000       0.171186         4.6582
  19   0.0000       0.205614         5.5950
  20   0.0000       0.225605         6.1390

MULLIKEN ATOMIC CHARGES
-----------------------
   0 C :   -0.047400
   1 O :   -0.303037
   2 C :    0.338604
   3 O :   -0.402203
   4 H :    0.111225
   5 H :    0.111439
   6 H :    0.095680
   7 H :    0.095691
Sum of atomic charges:   -0.0000000

LOEWDIN ATOMIC CHARGES
----------------------
   0 C :    0.065226
   1 O :    0.296866
   2 C :   -0.335632
   3 O :    0.108103
   4 H :   -0.042133
   5 H :   -0.029803
   6 H :   -0.031311
   7 H :   -0.031318

  Mayer bond orders larger than 0.1
B(  0-C ,  1-O ) :   0.8992 B(  0-C ,  5-H ) :   0.9791 B(  0-C ,  6-H ) :   0.9736
B(  0-C ,  7-H ) :   0.9736 B(  1-O ,  2-C ) :   1.1868 B(  2-C ,  3-O ) :   2.0341
B(  2-C ,  4-H ) :   0.9499

E(0)                                       ...   -227.874952622
E(0)                                       ...   -227.874952622
E(CORR)(strong-pairs)                      ...     -0.816543354
E(CORR)(weak-pairs)                        ...     -0.000481831
E(CORR)(corrected)                         ...     -0.817025186
E(TOT)                                     ...   -228.691977808
E(CCSD(T))                                 ...   -228.724285550
FINAL SINGLE POINT ENERGY      -228.724285550060

DIPOLE MOMENT
-------------
                                X             Y             Z
Electronic contribution:     -2.70140       1.07402      -0.00006
Nuclear contribution   :      3.38443      -0.63193       0.00003
                        -----------------------------------------
Total Dipole Moment    :      0.68303       0.44209      -0.00003
                        -----------------------------------------
Magnitude (a.u.)       :      0.81362
Magnitude (Debye)      :      2.06805

Rotational constants in cm-1:     0.669790     0.225725     0.174419
Rotational constants in MHz : 20079.801568  6767.050928  5228.945540

                             ****ORCA TERMINATED NORMALLY****
TOTAL RUN TIME: 0 days 0 hours 1 minutes 22 seconds 29 msec
