                         Program Version 4.1.x  -  STABLE  -
|  1> ! RHF DLPNO-CCSD(T) cc-pVTZ RIJK cc-pVTZ/JK cc-pVTZ/C
|  2> ! KDIIS SOSCF TightSCF TightPNO
|  3>
|  4> %pal nprocs 8 end
|  5>
|  6> %maxcore 8000
|  7>
|  8> %scf maxiter 300
|  9>      shift shift 0.2 erroff 0.1 end
| 10> end
| 11>
| 12> * xyzfile 0 1 Me_formate_E.xyz
| 13>
| 14>
| 15>                          ****END OF INPUT****

CARTESIAN COORDINATES (ANGSTROEM)
---------------------------------
  C      1.676370    0.117140    0.000020
  O      0.379390   -0.505890   -0.000020
  C     -0.688770    0.316770   -0.000010
  O     -1.821530   -0.087910    0.000020
  H     -0.420420    1.390350   -0.000040
  H      2.396540   -0.700120   -0.000740
  H      1.817420    0.728920   -0.896940
  H      1.817910    0.727730    0.897710

 Total Charge           Charge          ....    0
 Multiplicity           Mult            ....    1
 Number of Electrons    NEL             ....   32
 Basis Dimension        Dim             ....  176

ORBITAL ENERGIES
----------------

  NO   OCC          E(Eh)            E(eV)
   0   2.0000     -20.612900      -560.9055
   1   2.0000     -20.552178      -559.2532
   2   2.0000     -11.386001      -309.8288
   3   2.0000     -11.309729      -307.7534
   4   2.0000      -1.459867       -39.7250
   5   2.0000      -1.368884       -37.2492
   6   2.0000      -0.984849       -26.7991
   7   2.0000      -0.847364       -23.0579
   8   2.0000      -0.727247       -19.7894
   9   2.0000      -0.678688       -18.4681
  10   2.0000      -0.678205       -18.4549
  11   2.0000      -0.601023       -16.3547
  12   2.0000      -0.566773       -15.4227
  13   2.0000      -0.543693       -14.7946
  14   2.0000      -0.463383       -12.6093
  15   2.0000      -0.457960       -12.4617
  16   0.0000       0.127563         3.4712
  17   0.0000       0.143774         3.9123
  18   0.0000       0.176533         4.8037
  19   0.0000       0.200187         5.4474
  20   0.0000       0.224452         6.1077

MULLIKEN ATOMIC CHARGES
-----------------------
   0 C :   -0.063685
   1 O :   -0.266567
   2 C :    0.342816
   3 O :   -0.361460
   4 H :    0.055788
   5 H :    0.123654
   6 H :    0.084704
   7 H :    0.084749
Sum of atomic charges:    0.0000000

LOEWDIN ATOMIC CHARGES
----------------------
   0 C :    0.049894
   1 O :    0.304129
   2 C :   -0.336033
   3 O :    0.130504
   4 H :   -0.055383
   5 H :   -0.021769
   6 H :   -0.035673
   7 H :   -0.035668

  Mayer bond orders larger than 0.1
B(  0-C ,  1-O ) :   0.9295 B(  0-C ,  5-H ) :   0.9791 B(  0-C ,  6-H ) :   0.9730
B(  0-C ,  7-H ) :   0.9730 B(  1-O ,  2-C ) :   1.1406 B(  2-C ,  3-O ) :   2.1196
B(  2-C ,  4-H ) :   0.9463

E(0)                                       ...   -227.866307515
E(0)                                       ...   -227.866307515
E(CORR)(strong-pairs)                      ...     -0.816827287
E(CORR)(weak-pairs)                        ...     -0.000476368
E(CORR)(corrected)                         ...     -0.817303655
E(TOT)                                     ...   -228.683611170
E(CCSD(T))                                 ...   -228.715915921
FINAL SINGLE POINT ENERGY      -228.715915920854

DIPOLE MOMENT
-------------
                                X             Y             Z
Electronic contribution:     -3.96537      -1.24456      -0.00001
Nuclear contribution   :      5.59304       2.13918      -0.00002
                        -----------------------------------------
Total Dipole Moment    :      1.62767       0.89461      -0.00003
                        -----------------------------------------
Magnitude (a.u.)       :      1.85732
Magnitude (Debye)      :      4.72093

Rotational constants in cm-1:     1.583630     0.155256     0.145352
Rotational constants in MHz : 47476.043713  4654.452646  4357.539028

                             ****ORCA TERMINATED NORMALLY****
TOTAL RUN TIME: 0 days 0 hours 1 minutes 29 seconds 213 msec
