                         Program Version 4.1.x  -  STABLE  -
|  1> ! RHF DLPNO-CCSD(T) cc-pVTZ RIJK cc-pVTZ/JK cc-pVTZ/C
|  2> ! KDIIS SOSCF TightSCF TightPNO
|  3>
|  4> %pal nprocs 8 end
|  5>
|  6> %maxcore 8000
|  7>
|  8> %scf maxiter 300
|  9>      shift shift 0.2 erroff 0.1 end
| 10> end
| 11>
| 12> * xyzfile 0 1 Me_NH2_ecl.xyz
| 13>
| 14>
| 15>                          ****END OF INPUT****

CARTESIAN COORDINATES (ANGSTROEM)
---------------------------------
  C      0.700250    0.000230   -0.016440
  N     -0.733030   -0.000210    0.131910
  H      1.014950   -0.891680   -0.604260
  H      1.020780    0.923300   -0.550560
  H      1.188860   -0.032370    0.984430
  H     -1.147470    0.810860   -0.326030
  H     -1.147400   -0.810000   -0.328360

 Total Charge           Charge          ....    0
 Multiplicity           Mult            ....    1
 Number of Electrons    NEL             ....   18
 Basis Dimension        Dim             ....  130

ORBITAL ENERGIES
----------------

  NO   OCC          E(Eh)            E(eV)
   0   2.0000     -15.531393      -422.6307
   1   2.0000     -11.245443      -306.0041
   2   2.0000      -1.170501       -31.8509
   3   2.0000      -0.882919       -24.0254
   4   2.0000      -0.659348       -17.9418
   5   2.0000      -0.598989       -16.2993
   6   2.0000      -0.558168       -15.1885
   7   2.0000      -0.507285       -13.8039
   8   2.0000      -0.382917       -10.4197
   9   0.0000       0.138479         3.7682
  10   0.0000       0.177714         4.8358
  11   0.0000       0.186713         5.0807
  12   0.0000       0.228452         6.2165
  13   0.0000       0.260927         7.1002

MULLIKEN ATOMIC CHARGES
-----------------------
   0 C :   -0.121577
   1 N :   -0.358003
   2 H :    0.064089
   3 H :    0.065533
   4 H :    0.070474
   5 H :    0.139843
   6 H :    0.139642
Sum of atomic charges:   -0.0000000

LOEWDIN ATOMIC CHARGES
----------------------
   0 C :    0.018499
   1 N :    0.299175
   2 H :   -0.036794
   3 H :   -0.035755
   4 H :   -0.034305
   5 H :   -0.105496
   6 H :   -0.105323

  Mayer bond orders larger than 0.1
B(  0-C ,  1-N ) :   0.9621 B(  0-C ,  2-H ) :   0.9902 B(  0-C ,  3-H ) :   0.9902
B(  0-C ,  4-H ) :   0.9686 B(  1-N ,  5-H ) :   0.9985 B(  1-N ,  6-H ) :   0.9988

E(0)                                       ...    -95.246673452
E(0)                                       ...    -95.246673452
E(CORR)(strong-pairs)                      ...     -0.429531556
E(CORR)(weak-pairs)                        ...     -0.000165375
E(CORR)(corrected)                         ...     -0.429696931
E(TOT)                                     ...    -95.676370382
E(CCSD(T))                                 ...    -95.690780353
FINAL SINGLE POINT ENERGY       -95.690780352668

DIPOLE MOMENT
-------------
                                X             Y             Z
Electronic contribution:     -0.95521       0.00197       0.32793
Nuclear contribution   :      1.00727       0.00011      -0.89688
                        -----------------------------------------
Total Dipole Moment    :      0.05206       0.00208      -0.56895
                        -----------------------------------------
Magnitude (a.u.)       :      0.57134
Magnitude (Debye)      :      1.45222

Rotational constants in cm-1:     3.339318     0.778712     0.746848
Rotational constants in MHz : 100110.244957 23345.199408 22389.945601

                             ****ORCA TERMINATED NORMALLY****
TOTAL RUN TIME: 0 days 0 hours 0 minutes 47 seconds 856 msec
