                         Program Version 4.1.x  -  STABLE  -
|  1> ! RHF DLPNO-CCSD(T) cc-pVTZ RIJK cc-pVTZ/JK cc-pVTZ/C
|  2> ! KDIIS SOSCF TightSCF TightPNO
|  3>
|  4> %pal nprocs 8 end
|  5>
|  6> %maxcore 8000
|  7>
|  8> %scf maxiter 300
|  9>      shift shift 0.2 erroff 0.1 end
| 10> end
| 11>
| 12> * xyzfile 0 1 Me_NH2_g.xyz
| 13>
| 14>
| 15>                          ****END OF INPUT****

CARTESIAN COORDINATES (ANGSTROEM)
---------------------------------
  C      0.699910    0.000000    0.015980
  N     -0.732110    0.000000   -0.131390
  H      0.958260   -0.000000    1.099010
  H      1.127380   -0.909660   -0.464140
  H      1.127380    0.909660   -0.464150
  H     -1.143870   -0.812250    0.326530
  H     -1.143870    0.812250    0.326540

 Total Charge           Charge          ....    0
 Multiplicity           Mult            ....    1
 Number of Electrons    NEL             ....   18
 Basis Dimension        Dim             ....  130

ORBITAL ENERGIES
----------------

  NO   OCC          E(Eh)            E(eV)
   0   2.0000     -15.532157      -422.6515
   1   2.0000     -11.245971      -306.0184
   2   2.0000      -1.171366       -31.8745
   3   2.0000      -0.883087       -24.0300
   4   2.0000      -0.658018       -17.9056
   5   2.0000      -0.599168       -16.3042
   6   2.0000      -0.560137       -15.2421
   7   2.0000      -0.509893       -13.8749
   8   2.0000      -0.382798       -10.4165
   9   0.0000       0.138250         3.7620
  10   0.0000       0.179137         4.8746
  11   0.0000       0.195797         5.3279
  12   0.0000       0.222252         6.0478
  13   0.0000       0.241278         6.5655

MULLIKEN ATOMIC CHARGES
-----------------------
   0 C :   -0.126626
   1 N :   -0.364063
   2 H :    0.048147
   3 H :    0.081518
   4 H :    0.081517
   5 H :    0.139754
   6 H :    0.139753
Sum of atomic charges:    0.0000000

LOEWDIN ATOMIC CHARGES
----------------------
   0 C :    0.015403
   1 N :    0.299975
   2 H :   -0.049764
   3 H :   -0.028081
   4 H :   -0.028079
   5 H :   -0.104730
   6 H :   -0.104725

  Mayer bond orders larger than 0.1
B(  0-C ,  1-N ) :   0.9635 B(  0-C ,  2-H ) :   0.9828 B(  0-C ,  3-H ) :   0.9818
B(  0-C ,  4-H ) :   0.9818 B(  1-N ,  5-H ) :   0.9930 B(  1-N ,  6-H ) :   0.9930

E(0)                                       ...    -95.249936695
E(0)                                       ...    -95.249936695
E(CORR)(strong-pairs)                      ...     -0.429127877
E(CORR)(weak-pairs)                        ...     -0.000165275
E(CORR)(corrected)                         ...     -0.429293152
E(TOT)                                     ...    -95.679229847
E(CCSD(T))                                 ...    -95.693605288
FINAL SINGLE POINT ENERGY       -95.693605288467

DIPOLE MOMENT
-------------
                                X             Y             Z
Electronic contribution:     -0.93858      -0.00000      -0.36750
Nuclear contribution   :      1.00246       0.00000       0.89584
                        -----------------------------------------
Total Dipole Moment    :      0.06388      -0.00000       0.52833
                        -----------------------------------------
Magnitude (a.u.)       :      0.53218
Magnitude (Debye)      :      1.35270

Rotational constants in cm-1:     3.332004     0.781161     0.748648
Rotational constants in MHz : 99890.962491 23418.615918 22443.902692

                             ****ORCA TERMINATED NORMALLY****
TOTAL RUN TIME: 0 days 0 hours 0 minutes 47 seconds 616 msec
