                         Program Version 4.1.x  -  STABLE  -
|  1> ! RHF DLPNO-CCSD(T) cc-pVTZ RIJK cc-pVTZ/JK cc-pVTZ/C
|  2> ! KDIIS SOSCF TightSCF TightPNO
|  3>
|  4> %pal nprocs 8 end
|  5>
|  6> %maxcore 8000
|  7>
|  8> %scf maxiter 300
|  9>      shift shift 0.2 erroff 0.1 end
| 10> end
| 11>
| 12> * xyzfile 0 1 Me_vinyl_sulfone_gauche.xyz
| 13>
| 14>
| 15>                          ****END OF INPUT****

CARTESIAN COORDINATES (ANGSTROEM)
---------------------------------
  C      2.318200    0.180880    0.062780
  C      1.211390    0.295530   -0.666420
  S     -0.380190   -0.193950    0.008400
  O     -0.161210   -0.744670    1.358110
  C     -1.270790    1.369800    0.190590
  O     -1.070510   -0.980490   -1.029750
  H     -2.256790    1.109310    0.581610
  H     -0.732920    2.005370    0.895280
  H     -1.365270    1.843050   -0.788200
  H      3.289110    0.429240   -0.355960
  H      2.274430   -0.178780    1.086950
  H      1.175400    0.619070   -1.702630

 Total Charge           Charge          ....    0
 Multiplicity           Mult            ....    1
 Number of Electrons    NEL             ....   56
 Basis Dimension        Dim             ....  268

ORBITAL ENERGIES
----------------

  NO   OCC          E(Eh)            E(eV)
   0   2.0000     -92.183393     -2508.4377
   1   2.0000     -20.541680      -558.9675
   2   2.0000     -20.538972      -558.8938
   3   2.0000     -11.285302      -307.0887
   4   2.0000     -11.280451      -306.9567
   5   2.0000     -11.280324      -306.9532
   6   2.0000      -9.152778      -249.0597
   7   2.0000      -6.837439      -186.0562
   8   2.0000      -6.836996      -186.0441
   9   2.0000      -6.836709      -186.0363
  10   2.0000      -1.430378       -38.9226
  11   2.0000      -1.322052       -35.9749
  12   2.0000      -1.097749       -29.8713
  13   2.0000      -1.034661       -28.1545
  14   2.0000      -0.891705       -24.2645
  15   2.0000      -0.782656       -21.2971
  16   2.0000      -0.703357       -19.1393
  17   2.0000      -0.666467       -18.1355
  18   2.0000      -0.655402       -17.8344
  19   2.0000      -0.637317       -17.3423
  20   2.0000      -0.605965       -16.4891
  21   2.0000      -0.594933       -16.1889
  22   2.0000      -0.571139       -15.5415
  23   2.0000      -0.490723       -13.3533
  24   2.0000      -0.488774       -13.3002
  25   2.0000      -0.465089       -12.6557
  26   2.0000      -0.438887       -11.9427
  27   2.0000      -0.422517       -11.4973
  28   0.0000       0.096337         2.6215
  29   0.0000       0.129106         3.5132
  30   0.0000       0.152256         4.1431
  31   0.0000       0.169153         4.6029
  32   0.0000       0.199818         5.4373

MULLIKEN ATOMIC CHARGES
-----------------------
   0 C :   -0.240914
   1 C :   -0.250143
   2 S :    1.007692
   3 O :   -0.574495
   4 C :   -0.274461
   5 O :   -0.571912
   6 H :    0.131442
   7 H :    0.120232
   8 H :    0.116457
   9 H :    0.166800
  10 H :    0.192278
  11 H :    0.177024
Sum of atomic charges:   -0.0000000

LOEWDIN ATOMIC CHARGES
----------------------
   0 C :    0.136940
   1 C :   -0.099442
   2 S :    0.659868
   3 O :   -0.290715
   4 C :    0.048017
   5 O :   -0.293340
   6 H :   -0.021334
   7 H :   -0.028529
   8 H :   -0.029185
   9 H :   -0.023213
  10 H :   -0.020893
  11 H :   -0.038172

  Mayer bond orders larger than 0.1
B(  0-C ,  1-C ) :   1.8472 B(  0-C ,  9-H ) :   0.9594 B(  0-C , 10-H ) :   0.9415
B(  1-C ,  2-S ) :   0.9299 B(  1-C , 11-H ) :   0.9450 B(  2-S ,  3-O ) :   1.8170
B(  2-S ,  4-C ) :   0.9064 B(  2-S ,  5-O ) :   1.8257 B(  4-C ,  6-H ) :   0.9621
B(  4-C ,  7-H ) :   0.9607 B(  4-C ,  8-H ) :   0.9617

E(0)                                       ...   -664.388614919
E(0)                                       ...   -664.388614919
E(CORR)(strong-pairs)                      ...     -1.191386959
E(CORR)(weak-pairs)                        ...     -0.000950275
E(CORR)(corrected)                         ...     -1.192337233
E(TOT)                                     ...   -665.580952153
E(CCSD(T))                                 ...   -665.633399464
FINAL SINGLE POINT ENERGY      -665.633399463659

DIPOLE MOMENT
-------------
                                X             Y             Z
Electronic contribution:     -1.46727      -3.89230       0.01195
Nuclear contribution   :      2.35463       5.75315      -0.27550
                        -----------------------------------------
Total Dipole Moment    :      0.88737       1.86086      -0.26355
                        -----------------------------------------
Magnitude (a.u.)       :      2.07838
Magnitude (Debye)      :      5.28282

Rotational constants in cm-1:     0.144701     0.080997     0.080727
Rotational constants in MHz :  4338.030671  2428.232917  2420.135398

                             ****ORCA TERMINATED NORMALLY****
TOTAL RUN TIME: 0 days 0 hours 6 minutes 27 seconds 58 msec
