                         Program Version 4.1.x  -  STABLE  -
|  1> ! RHF DLPNO-CCSD(T) cc-pVTZ RIJK cc-pVTZ/JK cc-pVTZ/C
|  2> ! KDIIS SOSCF TightSCF TightPNO
|  3>
|  4> %pal nprocs 8 end
|  5>
|  6> %maxcore 8000
|  7>
|  8> %scf maxiter 300
|  9>      shift shift 0.2 erroff 0.1 end
| 10> end
| 11>
| 12> * xyzfile 0 1 me_vinyl_ether_s_cis.xyz
| 13>
| 14>
| 15>                          ****END OF INPUT****

CARTESIAN COORDINATES (ANGSTROEM)
---------------------------------
  C     -1.454520    0.570660    0.000000
  C     -0.745670   -0.566370    0.000000
  O      0.604920   -0.713680    0.000000
  C      1.387870    0.475360    0.000000
  H     -2.536230    0.509910    0.000000
  H     -1.009530    1.558240    0.000000
  H     -1.220450   -1.543120    0.000000
  H      2.429480    0.152650   -0.000020
  H      1.185630    1.076970   -0.895070
  H      1.185650    1.076950    0.895090

 Total Charge           Charge          ....    0
 Multiplicity           Mult            ....    1
 Number of Electrons    NEL             ....   32
 Basis Dimension        Dim             ....  204

ORBITAL ENERGIES
----------------

  NO   OCC          E(Eh)            E(eV)
   0   2.0000     -20.583944      -560.1176
   1   2.0000     -11.294598      -307.3416
   2   2.0000     -11.282020      -306.9994
   3   2.0000     -11.211791      -305.0884
   4   2.0000      -1.404721       -38.2244
   5   2.0000      -1.026559       -27.9341
   6   2.0000      -0.949176       -25.8284
   7   2.0000      -0.775152       -21.0930
   8   2.0000      -0.694112       -18.8877
   9   2.0000      -0.651545       -17.7294
  10   2.0000      -0.648314       -17.6415
  11   2.0000      -0.571817       -15.5599
  12   2.0000      -0.532177       -14.4813
  13   2.0000      -0.500997       -13.6328
  14   2.0000      -0.500605       -13.6222
  15   2.0000      -0.343783        -9.3548
  16   0.0000       0.147032         4.0009
  17   0.0000       0.171727         4.6729
  18   0.0000       0.180356         4.9077
  19   0.0000       0.189127         5.1464
  20   0.0000       0.214775         5.8443

MULLIKEN ATOMIC CHARGES
-----------------------
   0 C :   -0.429703
   1 C :    0.064111
   2 O :   -0.301690
   3 C :   -0.065720
   4 H :    0.147528
   5 H :    0.142569
   6 H :    0.170543
   7 H :    0.117939
   8 H :    0.077211
   9 H :    0.077212
Sum of atomic charges:    0.0000000

LOEWDIN ATOMIC CHARGES
----------------------
   0 C :    0.017280
   1 C :   -0.128010
   2 O :    0.300801
   3 C :    0.033638
   4 H :   -0.042182
   5 H :   -0.051541
   6 H :   -0.028022
   7 H :   -0.029185
   8 H :   -0.036390
   9 H :   -0.036389

  Mayer bond orders larger than 0.1
B(  0-C ,  1-C ) :   1.7988 B(  0-C ,  4-H ) :   0.9624 B(  0-C ,  5-H ) :   0.9651
B(  1-C ,  2-O ) :   1.1268 B(  1-C ,  6-H ) :   0.9652 B(  2-O ,  3-C ) :   0.9499
B(  3-C ,  7-H ) :   0.9821 B(  3-C ,  8-H ) :   0.9678 B(  3-C ,  9-H ) :   0.9678

E(0)                                       ...   -191.990044943
E(0)                                       ...   -191.990044943
E(CORR)(strong-pairs)                      ...     -0.773007330
E(CORR)(weak-pairs)                        ...     -0.000497871
E(CORR)(corrected)                         ...     -0.773505201
E(TOT)                                     ...   -192.763550144
E(CCSD(T))                                 ...   -192.794380615
FINAL SINGLE POINT ENERGY      -192.794380615184

DIPOLE MOMENT
-------------
                                X             Y             Z
Electronic contribution:      0.08916      -2.55875      -0.00000
Nuclear contribution   :      0.04562       2.91835       0.00000
                        -----------------------------------------
Total Dipole Moment    :      0.13478       0.35960      -0.00000
                        -----------------------------------------
Magnitude (a.u.)       :      0.38402
Magnitude (Debye)      :      0.97611

Rotational constants in cm-1:     0.612808     0.209255     0.160796
Rotational constants in MHz : 18371.534182  6273.302461  4820.534918

                             ****ORCA TERMINATED NORMALLY****
TOTAL RUN TIME: 0 days 0 hours 1 minutes 50 seconds 33 msec
