                         Program Version 4.1.x  -  STABLE  -
|  1> ! RHF DLPNO-CCSD(T) cc-pVTZ RIJK cc-pVTZ/JK cc-pVTZ/C
|  2> ! KDIIS SOSCF TightSCF TightPNO
|  3>
|  4> %pal nprocs 8 end
|  5>
|  6> %maxcore 8000
|  7>
|  8> %scf maxiter 300
|  9>      shift shift 0.2 erroff 0.1 end
| 10> end
| 11>
| 12> * xyzfile 0 1 Me_vinyl_sulfone_s_trans.xyz
| 13>
| 14>
| 15>                          ****END OF INPUT****

CARTESIAN COORDINATES (ANGSTROEM)
---------------------------------
  C      2.127700   -1.043570    0.000000
  C      1.406100    0.073990    0.000000
  S     -0.396360    0.010880    0.000000
  O     -0.850040   -0.575690    1.274070
  C     -0.850040    1.760320    0.000000
  O     -0.850040   -0.575690   -1.274070
  H     -1.941560    1.778040    0.000000
  H     -0.465290    2.234990    0.904300
  H     -0.465290    2.234990   -0.904300
  H      3.212710   -1.001980    0.000000
  H      1.664870   -2.026220    0.000000
  H      1.834360    1.072700    0.000000

 Total Charge           Charge          ....    0
 Multiplicity           Mult            ....    1
 Number of Electrons    NEL             ....   56
 Basis Dimension        Dim             ....  268

ORBITAL ENERGIES
----------------

  NO   OCC          E(Eh)            E(eV)
   0   2.0000     -92.183894     -2508.4513
   1   2.0000     -20.538534      -558.8819
   2   2.0000     -20.538513      -558.8814
   3   2.0000     -11.286643      -307.1252
   4   2.0000     -11.282546      -307.0137
   5   2.0000     -11.279058      -306.9188
   6   2.0000      -9.153266      -249.0730
   7   2.0000      -6.838029      -186.0722
   8   2.0000      -6.837412      -186.0554
   9   2.0000      -6.837089      -186.0467
  10   2.0000      -1.429153       -38.8892
  11   2.0000      -1.318765       -35.8854
  12   2.0000      -1.097211       -29.8566
  13   2.0000      -1.038480       -28.2585
  14   2.0000      -0.890777       -24.2393
  15   2.0000      -0.784692       -21.3526
  16   2.0000      -0.704408       -19.1679
  17   2.0000      -0.667754       -18.1705
  18   2.0000      -0.648415       -17.6443
  19   2.0000      -0.637607       -17.3502
  20   2.0000      -0.598540       -16.2871
  21   2.0000      -0.596995       -16.2450
  22   2.0000      -0.582089       -15.8394
  23   2.0000      -0.499649       -13.5961
  24   2.0000      -0.483470       -13.1559
  25   2.0000      -0.465023       -12.6539
  26   2.0000      -0.438625       -11.9356
  27   2.0000      -0.410645       -11.1742
  28   0.0000       0.097873         2.6633
  29   0.0000       0.122522         3.3340
  30   0.0000       0.146611         3.9895
  31   0.0000       0.176012         4.7895
  32   0.0000       0.190533         5.1847

MULLIKEN ATOMIC CHARGES
-----------------------
   0 C :   -0.237817
   1 C :   -0.197630
   2 S :    0.999334
   3 O :   -0.571726
   4 C :   -0.291012
   5 O :   -0.571726
   6 H :    0.138034
   7 H :    0.120889
   8 H :    0.120889
   9 H :    0.165395
  10 H :    0.165932
  11 H :    0.159437
Sum of atomic charges:   -0.0000000

LOEWDIN ATOMIC CHARGES
----------------------
   0 C :    0.137531
   1 C :   -0.094718
   2 S :    0.656194
   3 O :   -0.293679
   4 C :    0.048325
   5 O :   -0.293679
   6 H :   -0.019568
   7 H :   -0.028586
   8 H :   -0.028586
   9 H :   -0.022405
  10 H :   -0.018064
  11 H :   -0.042766

  Mayer bond orders larger than 0.1
B(  0-C ,  1-C ) :   1.8627 B(  0-C ,  9-H ) :   0.9615 B(  0-C , 10-H ) :   0.9570
B(  1-C ,  2-S ) :   0.8933 B(  1-C , 11-H ) :   0.9514 B(  2-S ,  3-O ) :   1.8201
B(  2-S ,  4-C ) :   0.9066 B(  2-S ,  5-O ) :   1.8201 B(  4-C ,  6-H ) :   0.9645
B(  4-C ,  7-H ) :   0.9601 B(  4-C ,  8-H ) :   0.9601

E(0)                                       ...   -664.380557497
E(0)                                       ...   -664.380557497
E(CORR)(strong-pairs)                      ...     -1.192599968
E(CORR)(weak-pairs)                        ...     -0.000942598
E(CORR)(corrected)                         ...     -1.193542565
E(TOT)                                     ...   -665.574100062
E(CCSD(T))                                 ...   -665.626765576
FINAL SINGLE POINT ENERGY      -665.626765576359

DIPOLE MOMENT
-------------
                                X             Y             Z
Electronic contribution:     -2.40571      -2.79912      -0.00000
Nuclear contribution   :      3.79039       4.23510      -0.00000
                        -----------------------------------------
Total Dipole Moment    :      1.38468       1.43598      -0.00000
                        -----------------------------------------
Magnitude (a.u.)       :      1.99484
Magnitude (Debye)      :      5.07047

Rotational constants in cm-1:     0.147359     0.080736     0.078038
Rotational constants in MHz :  4417.708922  2420.404174  2339.512060

                             ****ORCA TERMINATED NORMALLY****
TOTAL RUN TIME: 0 days 0 hours 5 minutes 8 seconds 183 msec
