                         Program Version 4.1.x  -  STABLE  -
|  1> ! RHF DLPNO-CCSD(T) cc-pVTZ RIJK cc-pVTZ/JK cc-pVTZ/C
|  2> ! KDIIS SOSCF TightSCF TightPNO
|  3>
|  4> %pal nprocs 8 end
|  5>
|  6> %maxcore 8000
|  7>
|  8> %scf maxiter 300
|  9>      shift shift 0.2 erroff 0.1 end
| 10> end
| 11>
| 12> * xyzfile 0 1 me_vinyl_ether_g.xyz
| 13>
| 14>
| 15>                          ****END OF INPUT****

CARTESIAN COORDINATES (ANGSTROEM)
---------------------------------
  C     -1.880300   -0.073640    0.030000
  C     -0.616390    0.354090   -0.027660
  O      0.445520   -0.500920   -0.052600
  C      1.730040    0.108340    0.035140
  H     -2.690290    0.645240    0.026610
  H     -2.120220   -1.130490    0.074350
  H     -0.362730    1.413780   -0.071430
  H      2.461360   -0.695930   -0.055770
  H      1.883250    0.829360   -0.778610
  H      1.864360    0.612690    1.000790

 Total Charge           Charge          ....    0
 Multiplicity           Mult            ....    1
 Number of Electrons    NEL             ....   32
 Basis Dimension        Dim             ....  204

ORBITAL ENERGIES
----------------

  NO   OCC          E(Eh)            E(eV)
   0   2.0000     -20.578399      -559.9667
   1   2.0000     -11.290734      -307.2365
   2   2.0000     -11.285795      -307.1021
   3   2.0000     -11.208727      -305.0050
   4   2.0000      -1.400294       -38.1039
   5   2.0000      -1.032268       -28.0894
   6   2.0000      -0.929161       -25.2838
   7   2.0000      -0.791142       -21.5281
   8   2.0000      -0.683406       -18.5964
   9   2.0000      -0.648151       -17.6371
  10   2.0000      -0.646795       -17.6002
  11   2.0000      -0.560328       -15.2473
  12   2.0000      -0.547218       -14.8906
  13   2.0000      -0.504268       -13.7218
  14   2.0000      -0.494511       -13.4563
  15   2.0000      -0.337274        -9.1777
  16   0.0000       0.142491         3.8774
  17   0.0000       0.164180         4.4676
  18   0.0000       0.174090         4.7372
  19   0.0000       0.193820         5.2741
  20   0.0000       0.214022         5.8238

MULLIKEN ATOMIC CHARGES
-----------------------
   0 C :   -0.391878
   1 C :    0.092586
   2 O :   -0.295166
   3 C :   -0.061331
   4 H :    0.142370
   5 H :    0.143110
   6 H :    0.116755
   7 H :    0.111555
   8 H :    0.069284
   9 H :    0.072716
Sum of atomic charges:   -0.0000000

LOEWDIN ATOMIC CHARGES
----------------------
   0 C :    0.041233
   1 C :   -0.131601
   2 O :    0.293576
   3 C :    0.026638
   4 H :   -0.043357
   5 H :   -0.042895
   6 H :   -0.038831
   7 H :   -0.027229
   8 H :   -0.038922
   9 H :   -0.038611

  Mayer bond orders larger than 0.1
B(  0-C ,  1-C ) :   1.8485 B(  0-C ,  4-H ) :   0.9708 B(  0-C ,  5-H ) :   0.9610
B(  1-C ,  2-O ) :   1.0768 B(  1-C ,  6-H ) :   0.9570 B(  2-O ,  3-C ) :   0.9613
B(  3-C ,  7-H ) :   0.9829 B(  3-C ,  8-H ) :   0.9728 B(  3-C ,  9-H ) :   0.9706

E(0)                                       ...   -191.987461480
E(0)                                       ...   -191.987461480
E(CORR)(strong-pairs)                      ...     -0.771885302
E(CORR)(weak-pairs)                        ...     -0.000479541
E(CORR)(corrected)                         ...     -0.772364843
E(TOT)                                     ...   -192.759826324
E(CCSD(T))                                 ...   -192.790418215
FINAL SINGLE POINT ENERGY      -192.790418214679

DIPOLE MOMENT
-------------
                                X             Y             Z
Electronic contribution:     -0.58520      -1.18424      -0.17012
Nuclear contribution   :      1.07899       1.72467       0.20189
                        -----------------------------------------
Total Dipole Moment    :      0.49379       0.54043       0.03177
                        -----------------------------------------
Magnitude (a.u.)       :      0.73274
Magnitude (Debye)      :      1.86247

Rotational constants in cm-1:     1.331341     0.149177     0.137901
Rotational constants in MHz : 39912.606242  4472.204879  4134.168755

                             ****ORCA TERMINATED NORMALLY****
TOTAL RUN TIME: 0 days 0 hours 1 minutes 43 seconds 344 msec
