                         Program Version 4.1.x  -  STABLE  -
|  1> ! RHF DLPNO-CCSD(T) cc-pVTZ RIJK cc-pVTZ/JK cc-pVTZ/C
|  2> ! KDIIS SOSCF TightSCF TightPNO
|  3>
|  4> %pal nprocs 8 end
|  5>
|  6> %maxcore 8000
|  7>
|  8> %scf maxiter 300
|  9>      shift shift 0.2 erroff 0.1 end
| 10> end
| 11>
| 12> * xyzfile 0 1 MeEt_sulfone_a.xyz
| 13>
| 14>
| 15>                          ****END OF INPUT****

CARTESIAN COORDINATES (ANGSTROEM)
---------------------------------
  C      1.942350   -1.317420    0.000000
  C      1.386780    0.106170    0.000000
  S     -0.438410    0.084990    0.000000
  O     -0.891190   -0.494990    1.279470
  C     -0.891190    1.837560    0.000000
  O     -0.891190   -0.494990   -1.279470
  H      3.035780   -1.277390    0.000000
  H      1.615700   -1.864070    0.888160
  H      1.615700   -1.864070   -0.888160
  H      1.685370    0.662560    0.893580
  H      1.685370    0.662560   -0.893580
  H     -1.982870    1.859230    0.000000
  H     -0.504520    2.311690    0.903610
  H     -0.504520    2.311690   -0.903610

 Total Charge           Charge          ....    0
 Multiplicity           Mult            ....    1
 Number of Electrons    NEL             ....   58
 Basis Dimension        Dim             ....  296

ORBITAL ENERGIES
----------------

  NO   OCC          E(Eh)            E(eV)
   0   2.0000     -92.175687     -2508.2280
   1   2.0000     -20.536427      -558.8246
   2   2.0000     -20.536407      -558.8240
   3   2.0000     -11.285242      -307.0870
   4   2.0000     -11.280208      -306.9501
   5   2.0000     -11.242499      -305.9240
   6   2.0000      -9.145924      -248.8732
   7   2.0000      -6.830423      -185.8652
   8   2.0000      -6.829917      -185.8515
   9   2.0000      -6.829749      -185.8469
  10   2.0000      -1.425408       -38.7873
  11   2.0000      -1.316716       -35.8297
  12   2.0000      -1.084481       -29.5102
  13   2.0000      -1.030685       -28.0464
  14   2.0000      -0.907213       -24.6865
  15   2.0000      -0.800985       -21.7959
  16   2.0000      -0.684588       -18.6286
  17   2.0000      -0.667452       -18.1623
  18   2.0000      -0.651294       -17.7226
  19   2.0000      -0.631227       -17.1766
  20   2.0000      -0.607532       -16.5318
  21   2.0000      -0.594054       -16.1650
  22   2.0000      -0.558074       -15.1860
  23   2.0000      -0.548909       -14.9366
  24   2.0000      -0.529688       -14.4135
  25   2.0000      -0.484881       -13.1943
  26   2.0000      -0.479547       -13.0491
  27   2.0000      -0.458197       -12.4682
  28   2.0000      -0.428065       -11.6483
  29   0.0000       0.120241         3.2719
  30   0.0000       0.145536         3.9602
  31   0.0000       0.163380         4.4458
  32   0.0000       0.181200         4.9307
  33   0.0000       0.196703         5.3526

MULLIKEN ATOMIC CHARGES
-----------------------
   0 C :   -0.301506
   1 C :   -0.188407
   2 S :    0.977236
   3 O :   -0.583700
   4 C :   -0.281740
   5 O :   -0.583700
   6 H :    0.106285
   7 H :    0.124117
   8 H :    0.124117
   9 H :    0.118370
  10 H :    0.118370
  11 H :    0.136007
  12 H :    0.117277
  13 H :    0.117277
Sum of atomic charges:   -0.0000000

LOEWDIN ATOMIC CHARGES
----------------------
   0 C :    0.106838
   1 C :   -0.024409
   2 S :    0.670757
   3 O :   -0.301872
   4 C :    0.046873
   5 O :   -0.301872
   6 H :   -0.022171
   7 H :   -0.018205
   8 H :   -0.018205
   9 H :   -0.028880
  10 H :   -0.028880
  11 H :   -0.020437
  12 H :   -0.029769
  13 H :   -0.029769

  Mayer bond orders larger than 0.1
B(  0-C ,  1-C ) :   0.9582 B(  0-C ,  6-H ) :   0.9747 B(  0-C ,  7-H ) :   0.9737
B(  0-C ,  8-H ) :   0.9737 B(  1-C ,  2-S ) :   0.8882 B(  1-C ,  9-H ) :   0.9641
B(  1-C , 10-H ) :   0.9641 B(  2-S ,  3-O ) :   1.8045 B(  2-S ,  4-C ) :   0.9034
B(  2-S ,  5-O ) :   1.8045 B(  4-C , 11-H ) :   0.9649 B(  4-C , 12-H ) :   0.9620
B(  4-C , 13-H ) :   0.9620

E(0)                                       ...   -665.587112068
E(0)                                       ...   -665.587112068
E(CORR)(strong-pairs)                      ...     -1.232631764
E(CORR)(weak-pairs)                        ...     -0.001001524
E(CORR)(corrected)                         ...     -1.233633289
E(TOT)                                     ...   -666.820745357
E(CCSD(T))                                 ...   -666.871781556
FINAL SINGLE POINT ENERGY      -666.871781555761

DIPOLE MOMENT
-------------
                                X             Y             Z
Electronic contribution:     -5.32645      -1.28532      -0.00000
Nuclear contribution   :      6.67884       2.80387       0.00000
                        -----------------------------------------
Total Dipole Moment    :      1.35240       1.51854      -0.00000
                        -----------------------------------------
Magnitude (a.u.)       :      2.03346
Magnitude (Debye)      :      5.16864

Rotational constants in cm-1:     0.143865     0.075092     0.074193
Rotational constants in MHz :  4312.976552  2251.200240  2224.250430

                             ****ORCA TERMINATED NORMALLY****
TOTAL RUN TIME: 0 days 0 hours 5 minutes 14 seconds 314 msec
