                         Program Version 4.1.x  -  STABLE  -
|  1> ! RHF DLPNO-CCSD(T) cc-pVTZ RIJK cc-pVTZ/JK cc-pVTZ/C
|  2> ! KDIIS SOSCF TightSCF TightPNO
|  3>
|  4> %pal nprocs 8 end
|  5>
|  6> %maxcore 8000
|  7>
|  8> %scf maxiter 300
|  9>      shift shift 0.2 erroff 0.1 end
| 10> end
| 11>
| 12> * xyzfile 0 1 MeEt_sulfone_g.xyz
| 13>
| 14>
| 15>                          ****END OF INPUT****

CARTESIAN COORDINATES (ANGSTROEM)
---------------------------------
  C     -2.297330    0.177710    0.049220
  C     -1.134100   -0.535450   -0.633390
  S      0.503250   -0.155070    0.075980
  O      1.494460   -0.954180   -0.669140
  C      0.795320    1.585960   -0.327170
  O      0.406250   -0.262880    1.544500
  H     -3.241050   -0.185100   -0.370210
  H     -2.297720   -0.021230    1.123630
  H     -2.263010    1.260800   -0.104550
  H     -1.194600   -1.622130   -0.515520
  H     -1.059420   -0.316910   -1.702900
  H      1.786080    1.814410    0.070540
  H      0.785980    1.710940   -1.411160
  H      0.042730    2.207450    0.159640

 Total Charge           Charge          ....    0
 Multiplicity           Mult            ....    1
 Number of Electrons    NEL             ....   58
 Basis Dimension        Dim             ....  296

ORBITAL ENERGIES
----------------

  NO   OCC          E(Eh)            E(eV)
   0   2.0000     -92.176156     -2508.2407
   1   2.0000     -20.537159      -558.8445
   2   2.0000     -20.536400      -558.8239
   3   2.0000     -11.285265      -307.0877
   4   2.0000     -11.279875      -306.9410
   5   2.0000     -11.250600      -306.1444
   6   2.0000      -9.146302      -248.8835
   7   2.0000      -6.830835      -185.8765
   8   2.0000      -6.830305      -185.8620
   9   2.0000      -6.830137      -185.8575
  10   2.0000      -1.425931       -38.8015
  11   2.0000      -1.317513       -35.8513
  12   2.0000      -1.087989       -29.6057
  13   2.0000      -1.027836       -27.9688
  14   2.0000      -0.916450       -24.9379
  15   2.0000      -0.802050       -21.8249
  16   2.0000      -0.681693       -18.5498
  17   2.0000      -0.673672       -18.3316
  18   2.0000      -0.648532       -17.6474
  19   2.0000      -0.632708       -17.2169
  20   2.0000      -0.599667       -16.3178
  21   2.0000      -0.595058       -16.1924
  22   2.0000      -0.577461       -15.7135
  23   2.0000      -0.549952       -14.9649
  24   2.0000      -0.531956       -14.4752
  25   2.0000      -0.485061       -13.1992
  26   2.0000      -0.481598       -13.1049
  27   2.0000      -0.459184       -12.4950
  28   2.0000      -0.427531       -11.6337
  29   0.0000       0.116870         3.1802
  30   0.0000       0.154379         4.2009
  31   0.0000       0.159726         4.3464
  32   0.0000       0.174386         4.7453
  33   0.0000       0.198840         5.4107

MULLIKEN ATOMIC CHARGES
-----------------------
   0 C :   -0.299012
   1 C :   -0.208375
   2 S :    0.974135
   3 O :   -0.576679
   4 C :   -0.290779
   5 O :   -0.580972
   6 H :    0.117061
   7 H :    0.133981
   8 H :    0.092641
   9 H :    0.133500
  10 H :    0.126702
  11 H :    0.139709
  12 H :    0.118198
  13 H :    0.119889
Sum of atomic charges:   -0.0000000

LOEWDIN ATOMIC CHARGES
----------------------
   0 C :    0.101024
   1 C :   -0.024605
   2 S :    0.670171
   3 O :   -0.299232
   4 C :    0.046598
   5 O :   -0.299684
   6 H :   -0.019101
   7 H :   -0.016724
   8 H :   -0.029241
   9 H :   -0.019169
  10 H :   -0.027837
  11 H :   -0.020445
  12 H :   -0.029694
  13 H :   -0.032062

  Mayer bond orders larger than 0.1
B(  0-C ,  1-C ) :   0.9416 B(  0-C ,  6-H ) :   0.9725 B(  0-C ,  7-H ) :   0.9672
B(  0-C ,  8-H ) :   0.9801 B(  1-C ,  2-S ) :   0.9047 B(  1-C ,  9-H ) :   0.9642
B(  1-C , 10-H ) :   0.9662 B(  2-S ,  3-O ) :   1.8158 B(  2-S ,  4-C ) :   0.8956
B(  2-S ,  5-O ) :   1.8022 B(  4-C , 11-H ) :   0.9636 B(  4-C , 12-H ) :   0.9615
B(  4-C , 13-H ) :   0.9614

E(0)                                       ...   -665.586286088
E(0)                                       ...   -665.586286088
E(CORR)(strong-pairs)                      ...     -1.233045192
E(CORR)(weak-pairs)                        ...     -0.001011782
E(CORR)(corrected)                         ...     -1.234056973
E(TOT)                                     ...   -666.820343062
E(CCSD(T))                                 ...   -666.871448021
FINAL SINGLE POINT ENERGY      -666.871448020760

DIPOLE MOMENT
-------------
                                X             Y             Z
Electronic contribution:      6.09087      -3.59142       1.78912
Nuclear contribution   :     -7.47967       4.86839      -2.75866
                        -----------------------------------------
Total Dipole Moment    :     -1.38880       1.27698      -0.96954
                        -----------------------------------------
Magnitude (a.u.)       :      2.12119
Magnitude (Debye)      :      5.39164

Rotational constants in cm-1:     0.136103     0.077234     0.074652
Rotational constants in MHz :  4080.255701  2315.415915  2237.997742

                             ****ORCA TERMINATED NORMALLY****
TOTAL RUN TIME: 0 days 0 hours 4 minutes 48 seconds 584 msec
