                         Program Version 4.1.x  -  STABLE  -
|  1> ! RHF DLPNO-CCSD(T) cc-pVTZ RIJK cc-pVTZ/JK cc-pVTZ/C
|  2> ! KDIIS SOSCF TightSCF TightPNO
|  3>
|  4> %pal nprocs 8 end
|  5>
|  6> %maxcore 8000
|  7>
|  8> %scf maxiter 300
|  9>      shift shift 0.2 erroff 0.1 end
| 10> end
| 11>
| 12> * xyzfile 0 1 methanethiol_g.xyz
| 13>
| 14>
| 15>                          ****END OF INPUT****

CARTESIAN COORDINATES (ANGSTROEM)
---------------------------------
  C     -1.151800    0.019200    0.000000
  S      0.660500   -0.086100   -0.000000
  H      0.892200    1.229400    0.000100
  H     -1.517800    0.519300   -0.890800
  H     -1.514400   -1.004900   -0.000100
  H     -1.517800    0.519100    0.891000

 Total Charge           Charge          ....    0
 Multiplicity           Mult            ....    1
 Number of Electrons    NEL             ....   26
 Basis Dimension        Dim             ....  120

ORBITAL ENERGIES
----------------

  NO   OCC          E(Eh)            E(eV)
   0   2.0000     -91.949225     -2502.0656
   1   2.0000     -11.256399      -306.3022
   2   2.0000      -8.951509      -243.5829
   3   2.0000      -6.632876      -180.4897
   4   2.0000      -6.631852      -180.4619
   5   2.0000      -6.630793      -180.4330
   6   2.0000      -1.037434       -28.2300
   7   2.0000      -0.866593       -23.5812
   8   2.0000      -0.608170       -16.5491
   9   2.0000      -0.592641       -16.1266
  10   2.0000      -0.527162       -14.3448
  11   2.0000      -0.458702       -12.4819
  12   2.0000      -0.356170        -9.6919
  13   0.0000       0.124830         3.3968
  14   0.0000       0.163643         4.4529
  15   0.0000       0.206147         5.6095
  16   0.0000       0.206875         5.6294
  17   0.0000       0.212966         5.7951

MULLIKEN ATOMIC CHARGES
-----------------------
   0 C :   -0.235541
   1 S :   -0.174516
   2 H :    0.088730
   3 H :    0.108709
   4 H :    0.103939
   5 H :    0.108679
Sum of atomic charges:    0.0000000

LOEWDIN ATOMIC CHARGES
----------------------
   0 C :   -0.042713
   1 S :    0.336002
   2 H :   -0.160146
   3 H :   -0.046893
   4 H :   -0.039397
   5 H :   -0.046853

  Mayer bond orders larger than 0.1
B(  0-C ,  1-S ) :   0.9878 B(  0-C ,  3-H ) :   0.9723 B(  0-C ,  4-H ) :   0.9727
B(  0-C ,  5-H ) :   0.9723 B(  1-S ,  2-H ) :   1.0128

E(0)                                       ...   -437.756560276
E(0)                                       ...   -437.756560276
E(CORR)(strong-pairs)                      ...     -0.397086472
E(CORR)(weak-pairs)                        ...     -0.000117142
E(CORR)(corrected)                         ...     -0.397203614
E(TOT)                                     ...   -438.153763889
E(CCSD(T))                                 ...   -438.168733543
FINAL SINGLE POINT ENERGY      -438.168733543395

DIPOLE MOMENT
-------------
                                X             Y             Z
Electronic contribution:      3.17623      -0.94505      -0.00015
Nuclear contribution   :     -3.73367       1.28460       0.00017
                        -----------------------------------------
Total Dipole Moment    :     -0.55744       0.33955       0.00002
                        -----------------------------------------
Magnitude (a.u.)       :      0.65272
Magnitude (Debye)      :      1.65908

Rotational constants in cm-1:     3.462798     0.431940     0.414236
Rotational constants in MHz : 103812.075635 12949.228756 12418.476365

                             ****ORCA TERMINATED NORMALLY****
TOTAL RUN TIME: 0 days 0 hours 0 minutes 28 seconds 401 msec
