                         Program Version 4.2.1 -  RELEASE  -
|  1> ! RHF DLPNO-CCSD(T) cc-pVTZ RIJK cc-pVTZ/JK cc-pVTZ/C
|  2> ! KDIIS SOSCF TightSCF TightPNO
|  3>
|  4> %pal nprocs 10 end
|  5>
|  6> %maxcore 8000
|  7>
|  8> %scf maxiter 300
|  9>      shift shift 0.2 erroff 0.1 end
| 10> end
| 11>
| 12> * xyzfile 0 1 methylethylsulfide_g.xyz
| 13>
| 14>
| 15>                          ****END OF INPUT****

CARTESIAN COORDINATES (ANGSTROEM)
---------------------------------
  C      1.852430    0.557400   -0.264310
  C      0.960400   -0.419000    0.502620
  S     -0.707350   -0.685800   -0.220600
  C     -1.501180    0.921930    0.134650
  H      2.837580    0.624990    0.213440
  H      1.993420    0.229340   -1.298540
  H      1.409530   -1.417400    0.515740
  H      1.426800    1.565740   -0.284300
  H      0.839520   -0.108440    1.546900
  H     -2.533940    0.844410   -0.213330
  H     -1.508360    1.127590    1.209290
  H     -1.016750    1.744550   -0.397260

 Total Charge           Charge          ....    0
 Multiplicity           Mult            ....    1
 Number of Electrons    NEL             ....   42
 Basis Dimension        Dim             ....  236

ORBITAL ENERGIES
----------------

  NO   OCC          E(Eh)            E(eV)
   0   2.0000     -91.939242     -2501.7940
   1   2.0000     -11.257773      -306.3396
   2   2.0000     -11.250781      -306.1493
   3   2.0000     -11.223814      -305.4155
   4   2.0000      -8.939931      -243.2679
   5   2.0000      -6.621186      -180.1716
   6   2.0000      -6.620206      -180.1450
   7   2.0000      -6.619324      -180.1210
   8   2.0000      -1.070066       -29.1180
   9   2.0000      -0.990996       -26.9664
  10   2.0000      -0.884894       -24.0792
  11   2.0000      -0.784198       -21.3391
  12   2.0000      -0.626247       -17.0410
  13   2.0000      -0.601666       -16.3722
  14   2.0000      -0.581524       -15.8241
  15   2.0000      -0.558103       -15.1867
  16   2.0000      -0.535901       -14.5826
  17   2.0000      -0.511798       -13.9267
  18   2.0000      -0.470585       -12.8053
  19   2.0000      -0.421496       -11.4695
  20   2.0000      -0.334322        -9.0974
  21   0.0000       0.135242         3.6801
  22   0.0000       0.149683         4.0731
  23   0.0000       0.174340         4.7440
  24   0.0000       0.191615         5.2141
  25   0.0000       0.204306         5.5595

MULLIKEN ATOMIC CHARGES
-----------------------
   0 C :   -0.266245
   1 C :   -0.167948
   2 S :   -0.135879
   3 C :   -0.261259
   4 H :    0.100226
   5 H :    0.102326
   6 H :    0.113900
   7 H :    0.089590
   8 H :    0.105766
   9 H :    0.116768
  10 H :    0.100413
  11 H :    0.102343
Sum of atomic charges:   -0.0000000

LOEWDIN ATOMIC CHARGES
----------------------
   0 C :    0.086179
   1 C :   -0.107185
   2 S :    0.370008
   3 C :   -0.048504
   4 H :   -0.027760
   5 H :   -0.027451
   6 H :   -0.036117
   7 H :   -0.032319
   8 H :   -0.042928
   9 H :   -0.037677
  10 H :   -0.046534
  11 H :   -0.049712

  Mayer bond orders larger than 0.100000
B(  0-C ,  1-C ) :   0.9406 B(  0-C ,  4-H ) :   0.9771 B(  0-C ,  5-H ) :   0.9770
B(  0-C ,  7-H ) :   0.9809 B(  1-C ,  2-S ) :   0.9982 B(  1-C ,  6-H ) :   0.9799
B(  1-C ,  8-H ) :   0.9763 B(  2-S ,  3-C ) :   0.9919 B(  3-C ,  9-H ) :   0.9769
B(  3-C , 10-H ) :   0.9702 B(  3-C , 11-H ) :   0.9703

E(0)                                       ...   -515.848842372
E(0)                                       ...   -515.848842372
E(CORR)(strong-pairs)                      ...     -0.766240023
E(CORR)(weak-pairs)                        ...     -0.000457444
E(CORR)(corrected)                         ...     -0.766697468
E(TOT)                                     ...   -516.615539840
E(CCSD(T))                                 ...   -516.645941921
FINAL SINGLE POINT ENERGY      -516.645941920536

DIPOLE MOMENT
-------------
                                X             Y             Z
Electronic contribution:     -3.29161      -4.24761      -1.03820
Nuclear contribution   :      3.59362       4.79751       1.34515
                        -----------------------------------------
Total Dipole Moment    :      0.30201       0.54990       0.30695
                        -----------------------------------------
Magnitude (a.u.)       :      0.69844
Magnitude (Debye)      :      1.77529

Rotational constants in cm-1:     0.320718     0.125952     0.103514
Rotational constants in MHz :  9614.897835  3775.942217  3103.258284

                             ****ORCA TERMINATED NORMALLY****
TOTAL RUN TIME: 0 days 0 hours 2 minutes 12 seconds 693 msec
