                         Program Version 4.1.x  -  STABLE  -
|  1> ! RHF DLPNO-CCSD(T) cc-pVTZ RIJK cc-pVTZ/JK cc-pVTZ/C
|  2> ! KDIIS SOSCF TightSCF TightPNO
|  3>
|  4> %pal nprocs 8 end
|  5>
|  6> %maxcore 8000
|  7>
|  8> %scf maxiter 300
|  9>      shift shift 0.2 erroff 0.1 end
| 10> end
| 11>
| 12> * xyzfile 0 1 methylformate_CO_Lp_ecl.xyz
| 13>
| 14>
| 15>                          ****END OF INPUT****

CARTESIAN COORDINATES (ANGSTROEM)
---------------------------------
  C      0.706340    0.281560   -0.217870
  O      1.741500   -0.104580    0.275510
  O     -0.432050   -0.451980   -0.344630
  C     -1.593820    0.116180    0.226740
  H      0.561730    1.310290   -0.628320
  H     -1.386570    0.418770    1.280570
  H     -1.929440    0.995110   -0.374400
  H     -2.396410   -0.658130    0.221870

 Total Charge           Charge          ....    0
 Multiplicity           Mult            ....    1
 Number of Electrons    NEL             ....   32
 Basis Dimension        Dim             ....  176

ORBITAL ENERGIES
----------------

  NO   OCC          E(Eh)            E(eV)
   0   2.0000     -20.603629      -560.6532
   1   2.0000     -20.567661      -559.6745
   2   2.0000     -11.393413      -310.0305
   3   2.0000     -11.314093      -307.8721
   4   2.0000      -1.458622       -39.6911
   5   2.0000      -1.375027       -37.4164
   6   2.0000      -0.977117       -26.5887
   7   2.0000      -0.840879       -22.8815
   8   2.0000      -0.727151       -19.7868
   9   2.0000      -0.684735       -18.6326
  10   2.0000      -0.670215       -18.2375
  11   2.0000      -0.615881       -16.7590
  12   2.0000      -0.556594       -15.1457
  13   2.0000      -0.519328       -14.1316
  14   2.0000      -0.472218       -12.8497
  15   2.0000      -0.461435       -12.5563
  16   0.0000       0.124227         3.3804
  17   0.0000       0.145975         3.9722
  18   0.0000       0.183020         4.9802
  19   0.0000       0.199026         5.4158
  20   0.0000       0.208657         5.6779

MULLIKEN ATOMIC CHARGES
-----------------------
   0 C :    0.358515
   1 O :   -0.343452
   2 O :   -0.289026
   3 C :   -0.045578
   4 H :    0.056427
   5 H :    0.075660
   6 H :    0.074108
   7 H :    0.113347
Sum of atomic charges:    0.0000000

LOEWDIN ATOMIC CHARGES
----------------------
   0 C :   -0.310345
   1 O :    0.136759
   2 O :    0.291083
   3 C :    0.012055
   4 H :   -0.053890
   5 H :   -0.029022
   6 H :   -0.033442
   7 H :   -0.013197

  Mayer bond orders larger than 0.1
B(  0-C ,  1-O ) :   2.1286 B(  0-C ,  2-O ) :   1.0975 B(  0-C ,  4-H ) :   0.9469
B(  2-O ,  3-C ) :   0.9351 B(  3-C ,  5-H ) :   0.9715 B(  3-C ,  6-H ) :   0.9753
B(  3-C ,  7-H ) :   0.9793

E(0)                                       ...   -227.854983130
E(0)                                       ...   -227.854983130
E(CORR)(strong-pairs)                      ...     -0.817089244
E(CORR)(weak-pairs)                        ...     -0.000463496
E(CORR)(corrected)                         ...     -0.817552740
E(TOT)                                     ...   -228.672535869
E(CCSD(T))                                 ...   -228.704759308
FINAL SINGLE POINT ENERGY      -228.704759308132

DIPOLE MOMENT
-------------
                                X             Y             Z
Electronic contribution:      3.80176      -1.25689      -0.63625
Nuclear contribution   :     -5.13401       2.05885       0.49902
                        -----------------------------------------
Total Dipole Moment    :     -1.33225       0.80197      -0.13723
                        -----------------------------------------
Magnitude (a.u.)       :      1.56105
Magnitude (Debye)      :      3.96787

Rotational constants in cm-1:     1.176607     0.159693     0.156664
Rotational constants in MHz : 35273.793395  4787.484463  4696.680923

                             ****ORCA TERMINATED NORMALLY****
TOTAL RUN TIME: 0 days 0 hours 1 minutes 39 seconds 634 msec
