                         Program Version 4.1.x  -  STABLE  -
|  1> ! RHF DLPNO-CCSD(T) cc-pVTZ RIJK cc-pVTZ/JK cc-pVTZ/C
|  2> ! KDIIS SOSCF TightSCF TightPNO
|  3>
|  4> %pal nprocs 8 end
|  5>
|  6> %maxcore 8000
|  7>
|  8> %scf maxiter 300
|  9>      shift shift 0.2 erroff 0.1 end
| 10> end
| 11>
| 12> * xyzfile 0 1 methylcyclohexane_eq.xyz
| 13>
| 14>
| 15>                          ****END OF INPUT****

CARTESIAN COORDINATES (ANGSTROEM)
---------------------------------
  C     -1.020960   -0.000010   -0.328440
  C     -0.294150   -1.263880    0.168960
  C      1.196070   -1.268800   -0.209510
  C      1.908670   -0.000010    0.284320
  C      1.196060    1.268800   -0.209490
  C     -0.294150    1.263900    0.168960
  C     -2.500940   -0.000010    0.073760
  H      1.685270   -2.162890    0.196890
  H      1.290260   -1.332510   -1.303620
  H      2.955980    0.000020   -0.042860
  H      1.925210   -0.000010    1.384280
  H      1.290270    1.332520   -1.303600
  H      1.685300    2.162870    0.196920
  H     -0.390000   -1.318350    1.264560
  H     -0.788830   -2.159150   -0.230280
  H     -0.788850    2.159140   -0.230330
  H     -0.390040    1.318360    1.264550
  H     -0.969420    0.000030   -1.429480
  H     -2.610410   -0.000020    1.165750
  H     -3.019180    0.885740   -0.312090
  H     -3.019180   -0.885750   -0.312080

 Total Charge           Charge          ....    0
 Multiplicity           Mult            ....    1
 Number of Electrons    NEL             ....   56
 Basis Dimension        Dim             ....  406

ORBITAL ENERGIES
----------------

  NO   OCC          E(Eh)            E(eV)
   0   2.0000     -11.220701      -305.3308
   1   2.0000     -11.214580      -305.1642
   2   2.0000     -11.214287      -305.1563
   3   2.0000     -11.213728      -305.1410
   4   2.0000     -11.212825      -305.1165
   5   2.0000     -11.212788      -305.1155
   6   2.0000     -11.208803      -305.0070
   7   2.0000      -1.113320       -30.2950
   8   2.0000      -1.025597       -27.9079
   9   2.0000      -0.995906       -27.1000
  10   2.0000      -0.913062       -24.8457
  11   2.0000      -0.826845       -22.4996
  12   2.0000      -0.796112       -21.6633
  13   2.0000      -0.745483       -20.2856
  14   2.0000      -0.636395       -17.3172
  15   2.0000      -0.605015       -16.4633
  16   2.0000      -0.596447       -16.2301
  17   2.0000      -0.595780       -16.2120
  18   2.0000      -0.561969       -15.2920
  19   2.0000      -0.529809       -14.4168
  20   2.0000      -0.519741       -14.1429
  21   2.0000      -0.507123       -13.7995
  22   2.0000      -0.485592       -13.2136
  23   2.0000      -0.476387       -12.9631
  24   2.0000      -0.465461       -12.6658
  25   2.0000      -0.445406       -12.1201
  26   2.0000      -0.422890       -11.5074
  27   2.0000      -0.419518       -11.4157
  28   0.0000       0.141673         3.8551
  29   0.0000       0.155183         4.2227
  30   0.0000       0.157875         4.2960
  31   0.0000       0.166142         4.5210
  32   0.0000       0.196898         5.3579

MULLIKEN ATOMIC CHARGES
-----------------------
   0 C :   -0.068588
   1 C :   -0.188163
   2 C :   -0.198405
   3 C :   -0.187375
   4 C :   -0.198403
   5 C :   -0.188164
   6 C :   -0.305074
   7 H :    0.107060
   8 H :    0.085895
   9 H :    0.107051
  10 H :    0.085295
  11 H :    0.085893
  12 H :    0.107057
  13 H :    0.084496
  14 H :    0.104425
  15 H :    0.104423
  16 H :    0.084499
  17 H :    0.095737
  18 H :    0.087242
  19 H :    0.097546
  20 H :    0.097553
Sum of atomic charges:    0.0000000

LOEWDIN ATOMIC CHARGES
----------------------
   0 C :   -0.021260
   1 C :    0.060842
   2 C :    0.057846
   3 C :    0.056023
   4 C :    0.057842
   5 C :    0.060849
   6 C :    0.110561
   7 H :   -0.027710
   8 H :   -0.027502
   9 H :   -0.028008
  10 H :   -0.027625
  11 H :   -0.027501
  12 H :   -0.027708
  13 H :   -0.026130
  14 H :   -0.026577
  15 H :   -0.026576
  16 H :   -0.026136
  17 H :   -0.024461
  18 H :   -0.029119
  19 H :   -0.028823
  20 H :   -0.028829

  Mayer bond orders larger than 0.1
B(  0-C ,  1-C ) :   0.9490 B(  0-C ,  5-C ) :   0.9490 B(  0-C ,  6-C ) :   0.9626
B(  0-C , 17-H ) :   0.9779 B(  1-C ,  2-C ) :   0.9577 B(  1-C , 13-H ) :   0.9803
B(  1-C , 14-H ) :   0.9943 B(  2-C ,  3-C ) :   0.9473 B(  2-C ,  7-H ) :   0.9952
B(  2-C ,  8-H ) :   0.9848 B(  3-C ,  4-C ) :   0.9473 B(  3-C ,  9-H ) :   0.9958
B(  3-C , 10-H ) :   0.9846 B(  4-C ,  5-C ) :   0.9577 B(  4-C , 11-H ) :   0.9848
B(  4-C , 12-H ) :   0.9952 B(  5-C , 15-H ) :   0.9943 B(  5-C , 16-H ) :   0.9803
B(  6-C , 18-H ) :   0.9804 B(  6-C , 19-H ) :   0.9870 B(  6-C , 20-H ) :   0.9870

E(0)                                       ...   -273.333620460
E(0)                                       ...   -273.333620460
E(CORR)(strong-pairs)                      ...     -1.289385970
E(CORR)(weak-pairs)                        ...     -0.001328025
E(CORR)(corrected)                         ...     -1.290713995
E(TOT)                                     ...   -274.624334455
E(CCSD(T))                                 ...   -274.675663367
FINAL SINGLE POINT ENERGY      -274.675663366918

DIPOLE MOMENT
-------------
                                X             Y             Z
Electronic contribution:      1.25596      -0.00003      -0.36004
Nuclear contribution   :     -1.22495       0.00002       0.33057
                        -----------------------------------------
Total Dipole Moment    :      0.03101      -0.00001      -0.02947
                        -----------------------------------------
Magnitude (a.u.)       :      0.04278
Magnitude (Debye)      :      0.10874

Rotational constants in cm-1:     0.139315     0.072141     0.052393
Rotational constants in MHz :  4176.573434  2162.727271  1570.707536

                             ****ORCA TERMINATED NORMALLY****
TOTAL RUN TIME: 0 days 0 hours 13 minutes 9 seconds 242 msec
