                         Program Version 4.1.x  -  STABLE  -
|  1> ! RHF DLPNO-CCSD(T) cc-pVTZ RIJK cc-pVTZ/JK cc-pVTZ/C
|  2> ! KDIIS SOSCF TightSCF TightPNO
|  3>
|  4> %pal nprocs 8 end
|  5>
|  6> %maxcore 8000
|  7>
|  8> %scf maxiter 300
|  9>      shift shift 0.2 erroff 0.1 end
| 10> end
| 11>
| 12> * xyzfile 0 1 methanol_ecl.xyz
| 13>
| 14>
| 15>                          ****END OF INPUT****

CARTESIAN COORDINATES (ANGSTROEM)
---------------------------------
  C      0.662360    0.018660   -0.000000
  O     -0.740050   -0.127530    0.000000
  H     -1.118430    0.735130   -0.000010
  H      1.079990   -0.466700   -0.913120
  H      0.904680    1.106510   -0.000010
  H      1.080000   -0.466660    0.913140

 Total Charge           Charge          ....    0
 Multiplicity           Mult            ....    1
 Number of Electrons    NEL             ....   18
 Basis Dimension        Dim             ....  116

ORBITAL ENERGIES
----------------

  NO   OCC          E(Eh)            E(eV)
   0   2.0000     -20.547901      -559.1368
   1   2.0000     -11.277429      -306.8745
   2   2.0000      -1.361440       -37.0467
   3   2.0000      -0.915710       -24.9177
   4   2.0000      -0.691859       -18.8264
   5   2.0000      -0.616329       -16.7712
   6   2.0000      -0.593857       -16.1597
   7   2.0000      -0.496709       -13.5161
   8   2.0000      -0.444021       -12.0824
   9   0.0000       0.136034         3.7017
  10   0.0000       0.178490         4.8569
  11   0.0000       0.221824         6.0361
  12   0.0000       0.223799         6.0899
  13   0.0000       0.292472         7.9586

MULLIKEN ATOMIC CHARGES
-----------------------
   0 C :    0.008736
   1 O :   -0.400437
   2 H :    0.219907
   3 H :    0.063311
   4 H :    0.045175
   5 H :    0.063308
Sum of atomic charges:    0.0000000

LOEWDIN ATOMIC CHARGES
----------------------
   0 C :    0.005313
   1 O :    0.331919
   2 H :   -0.225237
   3 H :   -0.035794
   4 H :   -0.040408
   5 H :   -0.035793

  Mayer bond orders larger than 0.1
B(  0-C ,  1-O ) :   0.9794 B(  0-C ,  3-H ) :   0.9708 B(  0-C ,  4-H ) :   0.9907
B(  0-C ,  5-H ) :   0.9708 B(  1-O ,  2-H ) :   1.0065

E(0)                                       ...   -115.085567971
E(0)                                       ...   -115.085567971
E(CORR)(strong-pairs)                      ...     -0.446670182
E(CORR)(weak-pairs)                        ...     -0.000154222
E(CORR)(corrected)                         ...     -0.446824405
E(TOT)                                     ...   -115.532392376
E(CCSD(T))                                 ...   -115.546641703
FINAL SINGLE POINT ENERGY      -115.546641703119

DIPOLE MOMENT
-------------
                                X             Y             Z
Electronic contribution:     -1.71361      -0.32706      -0.00001
Nuclear contribution   :      2.04104       0.95614       0.00000
                        -----------------------------------------
Total Dipole Moment    :      0.32743       0.62908      -0.00001
                        -----------------------------------------
Magnitude (a.u.)       :      0.70919
Magnitude (Debye)      :      1.80262

Rotational constants in cm-1:     4.110701     0.839871     0.810047
Rotational constants in MHz : 123235.724125 25178.711803 24284.589811

                             ****ORCA TERMINATED NORMALLY****
TOTAL RUN TIME: 0 days 0 hours 0 minutes 25 seconds 37 msec
