                         Program Version 4.2.1 -  RELEASE  -
|  1> ! RHF DLPNO-CCSD(T) cc-pVTZ RIJK cc-pVTZ/JK cc-pVTZ/C
|  2> ! KDIIS SOSCF TightSCF TightPNO
|  3>
|  4> %pal nprocs 10 end
|  5>
|  6> %maxcore 8000
|  7>
|  8> %scf maxiter 300
|  9>      shift shift 0.2 erroff 0.1 end
| 10> end
| 11>
| 12> * xyzfile 0 1 methylethylsulfide_a.xyz
| 13>
| 14>
| 15>                          ****END OF INPUT****

CARTESIAN COORDINATES (ANGSTROEM)
---------------------------------
  C     -2.188120   -0.023540    0.000010
  C     -0.809680    0.637770   -0.000010
  S      0.511760   -0.639470   -0.000000
  C      1.984550    0.440240    0.000010
  H     -2.972250    0.741270    0.000000
  H     -2.326930   -0.650700   -0.886410
  H     -0.687320    1.269250   -0.887160
  H     -2.326900   -0.650670    0.886450
  H     -0.687320    1.269260    0.887130
  H      2.860730   -0.212410   -0.000010
  H      2.015650    1.069340   -0.894570
  H      2.015650    1.069320    0.894590

 Total Charge           Charge          ....    0
 Multiplicity           Mult            ....    1
 Number of Electrons    NEL             ....   42
 Basis Dimension        Dim             ....  236

ORBITAL ENERGIES
----------------

  NO   OCC          E(Eh)            E(eV)
   0   2.0000     -91.938533     -2501.7747
   1   2.0000     -11.257021      -306.3191
   2   2.0000     -11.250932      -306.1534
   3   2.0000     -11.224462      -305.4331
   4   2.0000      -8.939360      -243.2523
   5   2.0000      -6.620592      -180.1555
   6   2.0000      -6.619666      -180.1303
   7   2.0000      -6.618722      -180.1046
   8   2.0000      -1.070075       -29.1182
   9   2.0000      -0.994130       -27.0517
  10   2.0000      -0.875304       -23.8182
  11   2.0000      -0.789139       -21.4736
  12   2.0000      -0.626047       -17.0356
  13   2.0000      -0.593694       -16.1552
  14   2.0000      -0.580865       -15.8061
  15   2.0000      -0.577755       -15.7215
  16   2.0000      -0.526304       -14.3215
  17   2.0000      -0.505405       -13.7528
  18   2.0000      -0.470412       -12.8006
  19   2.0000      -0.424277       -11.5452
  20   2.0000      -0.333555        -9.0765
  21   0.0000       0.138049         3.7565
  22   0.0000       0.139943         3.8080
  23   0.0000       0.185609         5.0507
  24   0.0000       0.187260         5.0956
  25   0.0000       0.210127         5.7178

MULLIKEN ATOMIC CHARGES
-----------------------
   0 C :   -0.288649
   1 C :   -0.135986
   2 S :   -0.132464
   3 C :   -0.259423
   4 H :    0.099535
   5 H :    0.101903
   6 H :    0.099391
   7 H :    0.101905
   8 H :    0.099391
   9 H :    0.113111
  10 H :    0.100639
  11 H :    0.100646
Sum of atomic charges:    0.0000000

LOEWDIN ATOMIC CHARGES
----------------------
   0 C :    0.086817
   1 C :   -0.100134
   2 S :    0.365721
   3 C :   -0.049285
   4 H :   -0.027166
   5 H :   -0.027248
   6 H :   -0.044981
   7 H :   -0.027250
   8 H :   -0.044982
   9 H :   -0.038018
  10 H :   -0.046734
  11 H :   -0.046740

  Mayer bond orders larger than 0.100000
B(  0-C ,  1-C ) :   0.9624 B(  0-C ,  4-H ) :   0.9792 B(  0-C ,  5-H ) :   0.9786
B(  0-C ,  7-H ) :   0.9786 B(  1-C ,  2-S ) :   0.9945 B(  1-C ,  6-H ) :   0.9737
B(  1-C ,  8-H ) :   0.9737 B(  2-S ,  3-C ) :   0.9990 B(  3-C ,  9-H ) :   0.9777
B(  3-C , 10-H ) :   0.9704 B(  3-C , 11-H ) :   0.9704

E(0)                                       ...   -515.849475882
E(0)                                       ...   -515.849475882
E(CORR)(strong-pairs)                      ...     -0.765657271
E(CORR)(weak-pairs)                        ...     -0.000456737
E(CORR)(corrected)                         ...     -0.766114008
E(TOT)                                     ...   -516.615589890
E(CCSD(T))                                 ...   -516.645875710
FINAL SINGLE POINT ENERGY      -516.645875710439

DIPOLE MOMENT
-------------
                                X             Y             Z
Electronic contribution:      2.18272      -3.37990      -0.00000
Nuclear contribution   :     -2.20041       4.06467       0.00000
                        -----------------------------------------
Total Dipole Moment    :     -0.01769       0.68477       0.00000
                        -----------------------------------------
Magnitude (a.u.)       :      0.68500
Magnitude (Debye)      :      1.74112

Rotational constants in cm-1:     0.529016     0.103373     0.090939
Rotational constants in MHz : 15859.502684  3099.059325  2726.284347

                             ****ORCA TERMINATED NORMALLY****
TOTAL RUN TIME: 0 days 0 hours 2 minutes 10 seconds 73 msec
