                         Program Version 4.1.x  -  STABLE  -
|  1> ! RHF DLPNO-CCSD(T) cc-pVTZ RIJK cc-pVTZ/JK cc-pVTZ/C
|  2> ! KDIIS SOSCF TightSCF TightPNO
|  3>
|  4> %pal nprocs 8 end
|  5>
|  6> %maxcore 8000
|  7>
|  8> %scf maxiter 300
|  9>      shift shift 0.2 erroff 0.1 end
| 10> end
| 11>
| 12> * xyzfile 0 1 methyl_glycolate_sk.xyz
| 13>
| 14>
| 15>                          ****END OF INPUT****

CARTESIAN COORDINATES (ANGSTROEM)
---------------------------------
  C      2.096940   -0.692390   -0.000000
  O      0.654690   -0.706310    0.000030
  C      0.062020    0.491920   -0.000000
  O      0.653490    1.554650   -0.000050
  C     -1.456820    0.431740    0.000060
  O     -1.942270   -0.897970   -0.000030
  H     -1.784190    0.993700    0.886470
  H     -1.784270    0.993840   -0.886210
  H     -2.907370   -0.872140   -0.000240
  H      2.393110   -1.740600    0.000140
  H      2.471290   -0.182830   -0.890880
  H      2.471350   -0.182540    0.890680

 Total Charge           Charge          ....    0
 Multiplicity           Mult            ....    1
 Number of Electrons    NEL             ....   48
 Basis Dimension        Dim             ....  264

ORBITAL ENERGIES
----------------

  NO   OCC          E(Eh)            E(eV)
   0   2.0000     -20.604423      -560.6748
   1   2.0000     -20.571876      -559.7892
   2   2.0000     -20.539789      -558.9161
   3   2.0000     -11.381983      -309.7195
   4   2.0000     -11.304247      -307.6042
   5   2.0000     -11.286792      -307.1292
   6   2.0000      -1.459493       -39.7148
   7   2.0000      -1.374185       -37.3935
   8   2.0000      -1.354357       -36.8539
   9   2.0000      -1.013362       -27.5750
  10   2.0000      -0.943663       -25.6784
  11   2.0000      -0.777638       -21.1606
  12   2.0000      -0.717738       -19.5306
  13   2.0000      -0.697914       -18.9912
  14   2.0000      -0.683930       -18.6107
  15   2.0000      -0.656940       -17.8763
  16   2.0000      -0.637144       -17.3376
  17   2.0000      -0.588104       -16.0031
  18   2.0000      -0.541120       -14.7246
  19   2.0000      -0.536447       -14.5975
  20   2.0000      -0.526039       -14.3142
  21   2.0000      -0.474762       -12.9189
  22   2.0000      -0.450769       -12.2661
  23   2.0000      -0.448659       -12.2086
  24   0.0000       0.130691         3.5563
  25   0.0000       0.153831         4.1860
  26   0.0000       0.166087         4.5195
  27   0.0000       0.180669         4.9162
  28   0.0000       0.213638         5.8134

MULLIKEN ATOMIC CHARGES
-----------------------
   0 C :   -0.058927
   1 O :   -0.276103
   2 C :    0.371019
   3 O :   -0.430736
   4 C :    0.089237
   5 O :   -0.379614
   6 H :    0.079868
   7 H :    0.079879
   8 H :    0.223846
   9 H :    0.113395
  10 H :    0.094063
  11 H :    0.094073
Sum of atomic charges:    0.0000000

LOEWDIN ATOMIC CHARGES
----------------------
   0 C :    0.065741
   1 O :    0.323317
   2 C :   -0.439333
   3 O :    0.093628
   4 C :   -0.049436
   5 O :    0.328376
   6 H :   -0.022946
   7 H :   -0.022953
   8 H :   -0.183750
   9 H :   -0.029545
  10 H :   -0.031548
  11 H :   -0.031551

  Mayer bond orders larger than 0.1
B(  0-C ,  1-O ) :   0.9064 B(  0-C ,  9-H ) :   0.9791 B(  0-C , 10-H ) :   0.9741
B(  0-C , 11-H ) :   0.9741 B(  1-O ,  2-C ) :   1.2207 B(  2-C ,  3-O ) :   2.0045
B(  2-C ,  4-C ) :   0.9491 B(  4-C ,  5-O ) :   1.0312 B(  4-C ,  6-H ) :   0.9719
B(  4-C ,  7-H ) :   0.9719 B(  5-O ,  8-H ) :   0.9893

E(0)                                       ...   -341.809201771
E(0)                                       ...   -341.809201771
E(CORR)(strong-pairs)                      ...     -1.228275324
E(CORR)(weak-pairs)                        ...     -0.000951418
E(CORR)(corrected)                         ...     -1.229226742
E(TOT)                                     ...   -343.038428513
E(CCSD(T))                                 ...   -343.086357826
FINAL SINGLE POINT ENERGY      -343.086357825515

DIPOLE MOMENT
-------------
                                X             Y             Z
Electronic contribution:     -1.39772       0.66268      -0.00004
Nuclear contribution   :      0.85057      -0.99212      -0.00003
                        -----------------------------------------
Total Dipole Moment    :     -0.54715      -0.32944      -0.00007
                        -----------------------------------------
Magnitude (a.u.)       :      0.63867
Magnitude (Debye)      :      1.62337

Rotational constants in cm-1:     0.212916     0.089229     0.064407
Rotational constants in MHz :  6383.050416  2675.010557  1930.885917

                             ****ORCA TERMINATED NORMALLY****
TOTAL RUN TIME: 0 days 0 hours 4 minutes 17 seconds 190 msec
