                         Program Version 4.1.x  -  STABLE  -
|  1> ! RHF DLPNO-CCSD(T) cc-pVTZ RIJK cc-pVTZ/JK cc-pVTZ/C
|  2> ! KDIIS SOSCF TightSCF TightPNO
|  3>
|  4> %pal nprocs 8 end
|  5>
|  6> %maxcore 8000
|  7>
|  8> %scf maxiter 300
|  9>      shift shift 0.2 erroff 0.1 end
| 10> end
| 11>
| 12> * xyzfile 0 1 methoxycyclohexane_ax.xyz
| 13>
| 14>
| 15>                          ****END OF INPUT****

CARTESIAN COORDINATES (ANGSTROEM)
---------------------------------
  C      0.623760   -0.309490    0.679210
  C      0.029250    1.103920    0.824880
  C     -0.990280    1.420350   -0.281580
  C     -2.097700    0.356160   -0.344460
  C     -1.508170   -1.053790   -0.509650
  C     -0.483630   -1.366170    0.593740
  O      1.419840   -0.443330   -0.506870
  C      2.693300    0.170250   -0.443160
  H     -1.424050    2.413930   -0.113830
  H     -0.471220    1.459800   -1.247890
  H     -2.788750    0.577420   -1.167290
  H     -2.691100    0.396330    0.581640
  H     -1.015920   -1.131320   -1.486890
  H     -2.307330   -1.805150   -0.495520
  H     -0.461070    1.160730    1.807280
  H      0.828570    1.854370    0.840160
  H     -0.024390   -2.347540    0.430040
  H     -0.992070   -1.404240    1.567420
  H      1.265660   -0.526230    1.549970
  H      3.224070   -0.105350   -1.357790
  H      2.632120    1.266760   -0.391100
  H      3.267660   -0.190210    0.424920

 Total Charge           Charge          ....    0
 Multiplicity           Mult            ....    1
 Number of Electrons    NEL             ....   64
 Basis Dimension        Dim             ....  436

ORBITAL ENERGIES
----------------

  NO   OCC          E(Eh)            E(eV)
   0   2.0000     -20.545683      -559.0764
   1   2.0000     -11.273458      -306.7664
   2   2.0000     -11.266896      -306.5878
   3   2.0000     -11.216790      -305.2244
   4   2.0000     -11.213553      -305.1363
   5   2.0000     -11.213527      -305.1356
   6   2.0000     -11.212898      -305.1185
   7   2.0000     -11.210545      -305.0544
   8   2.0000      -1.361024       -37.0353
   9   2.0000      -1.101808       -29.9817
  10   2.0000      -1.000886       -27.2355
  11   2.0000      -0.995847       -27.0984
  12   2.0000      -0.912267       -24.8240
  13   2.0000      -0.829810       -22.5803
  14   2.0000      -0.817457       -22.2441
  15   2.0000      -0.737496       -20.0683
  16   2.0000      -0.668262       -18.1843
  17   2.0000      -0.640854       -17.4385
  18   2.0000      -0.631513       -17.1843
  19   2.0000      -0.616188       -16.7673
  20   2.0000      -0.587081       -15.9753
  21   2.0000      -0.572806       -15.5868
  22   2.0000      -0.536645       -14.6028
  23   2.0000      -0.530588       -14.4380
  24   2.0000      -0.519731       -14.1426
  25   2.0000      -0.504849       -13.7376
  26   2.0000      -0.484125       -13.1737
  27   2.0000      -0.475356       -12.9351
  28   2.0000      -0.451322       -12.2811
  29   2.0000      -0.442109       -12.0304
  30   2.0000      -0.423235       -11.5168
  31   2.0000      -0.402004       -10.9391
  32   0.0000       0.136777         3.7219
  33   0.0000       0.154562         4.2058
  34   0.0000       0.162677         4.4267
  35   0.0000       0.172712         4.6997
  36   0.0000       0.195358         5.3160

MULLIKEN ATOMIC CHARGES
-----------------------
   0 C :    0.119126
   1 C :   -0.222855
   2 C :   -0.180527
   3 C :   -0.198165
   4 C :   -0.191744
   5 C :   -0.184479
   6 O :   -0.394363
   7 C :   -0.075878
   8 H :    0.106996
   9 H :    0.094244
  10 H :    0.107006
  11 H :    0.081651
  12 H :    0.098929
  13 H :    0.106221
  14 H :    0.100716
  15 H :    0.107754
  16 H :    0.105448
  17 H :    0.087287
  18 H :    0.097484
  19 H :    0.110485
  20 H :    0.063224
  21 H :    0.061440
Sum of atomic charges:   -0.0000000

LOEWDIN ATOMIC CHARGES
----------------------
   0 C :   -0.121663
   1 C :    0.056667
   2 C :    0.060169
   3 C :    0.056423
   4 C :    0.060673
   5 C :    0.060050
   6 O :    0.248067
   7 C :   -0.002771
   8 H :   -0.028558
   9 H :   -0.025522
  10 H :   -0.027640
  11 H :   -0.028949
  12 H :   -0.024258
  13 H :   -0.028580
  14 H :   -0.022610
  15 H :   -0.030533
  16 H :   -0.023418
  17 H :   -0.024377
  18 H :   -0.032908
  19 H :   -0.031952
  20 H :   -0.045597
  21 H :   -0.042712

  Mayer bond orders larger than 0.1
B(  0-C ,  1-C ) :   0.9510 B(  0-C ,  5-C ) :   0.9602 B(  0-C ,  6-O ) :   0.9419
B(  0-C , 18-H ) :   1.0021 B(  1-C ,  2-C ) :   0.9410 B(  1-C , 14-H ) :   0.9833
B(  1-C , 15-H ) :   0.9907 B(  2-C ,  3-C ) :   0.9516 B(  2-C ,  8-H ) :   0.9958
B(  2-C ,  9-H ) :   0.9797 B(  3-C ,  4-C ) :   0.9504 B(  3-C , 10-H ) :   0.9951
B(  3-C , 11-H ) :   0.9860 B(  4-C ,  5-C ) :   0.9531 B(  4-C , 12-H ) :   0.9785
B(  4-C , 13-H ) :   0.9946 B(  5-C , 16-H ) :   0.9904 B(  5-C , 17-H ) :   0.9872
B(  6-O ,  7-C ) :   1.0017 B(  7-C , 19-H ) :   0.9844 B(  7-C , 20-H ) :   0.9666
B(  7-C , 21-H ) :   0.9726

E(0)                                       ...   -348.205043730
E(0)                                       ...   -348.205043730
E(CORR)(strong-pairs)                      ...     -1.517138697
E(CORR)(weak-pairs)                        ...     -0.001623882
E(CORR)(corrected)                         ...     -1.518762580
E(TOT)                                     ...   -349.723806309
E(CCSD(T))                                 ...   -349.783754860
FINAL SINGLE POINT ENERGY      -349.783754860453

DIPOLE MOMENT
-------------
                                X             Y             Z
Electronic contribution:      1.13594      -1.43996      -0.60810
Nuclear contribution   :     -0.98468       1.69714       0.98222
                        -----------------------------------------
Total Dipole Moment    :      0.15126       0.25719       0.37412
                        -----------------------------------------
Magnitude (a.u.)       :      0.47853
Magnitude (Debye)      :      1.21633

Rotational constants in cm-1:     0.108700     0.052457     0.044066
Rotational constants in MHz :  3258.757348  1572.609337  1321.068047

                             ****ORCA TERMINATED NORMALLY****
TOTAL RUN TIME: 0 days 0 hours 19 minutes 0 seconds 752 msec
