                         Program Version 4.1.x  -  STABLE  -
|  1> ! RHF DLPNO-CCSD(T) cc-pVTZ RIJK cc-pVTZ/JK cc-pVTZ/C
|  2> ! KDIIS SOSCF TightSCF TightPNO
|  3>
|  4> %pal nprocs 8 end
|  5>
|  6> %maxcore 8000
|  7>
|  8> %scf maxiter 300
|  9>      shift shift 0.2 erroff 0.1 end
| 10> end
| 11>
| 12> * xyzfile 0 1 methanethiol_ecl.xyz
| 13>
| 14>
| 15>                          ****END OF INPUT****

CARTESIAN COORDINATES (ANGSTROEM)
---------------------------------
  C     -1.157400    0.013000    0.000000
  S      0.663600   -0.087800    0.000000
  H      0.896700    1.225000   -0.000000
  H     -1.471300    1.050900   -0.000600
  H     -1.549000   -0.475100   -0.886400
  H     -1.549000   -0.474100    0.887000

 Total Charge           Charge          ....    0
 Multiplicity           Mult            ....    1
 Number of Electrons    NEL             ....   26
 Basis Dimension        Dim             ....  120

ORBITAL ENERGIES
----------------

  NO   OCC          E(Eh)            E(eV)
   0   2.0000     -91.948618     -2502.0491
   1   2.0000     -11.256181      -306.2963
   2   2.0000      -8.950917      -243.5668
   3   2.0000      -6.632287      -180.4737
   4   2.0000      -6.631278      -180.4463
   5   2.0000      -6.630265      -180.4187
   6   2.0000      -1.035563       -28.1791
   7   2.0000      -0.867428       -23.6039
   8   2.0000      -0.608062       -16.5462
   9   2.0000      -0.590737       -16.0748
  10   2.0000      -0.530777       -14.4432
  11   2.0000      -0.455005       -12.3813
  12   2.0000      -0.355681        -9.6786
  13   0.0000       0.123599         3.3633
  14   0.0000       0.157682         4.2907
  15   0.0000       0.201349         5.4790
  16   0.0000       0.209840         5.7100
  17   0.0000       0.232074         6.3150

MULLIKEN ATOMIC CHARGES
-----------------------
   0 C :   -0.236714
   1 S :   -0.182043
   2 H :    0.093578
   3 H :    0.104520
   4 H :    0.110337
   5 H :    0.110322
Sum of atomic charges:   -0.0000000

LOEWDIN ATOMIC CHARGES
----------------------
   0 C :   -0.036701
   1 S :    0.332430
   2 H :   -0.161531
   3 H :   -0.042051
   4 H :   -0.046080
   5 H :   -0.046066

  Mayer bond orders larger than 0.1
B(  0-C ,  1-S ) :   0.9735 B(  0-C ,  3-H ) :   0.9782 B(  0-C ,  4-H ) :   0.9719
B(  0-C ,  5-H ) :   0.9719 B(  1-S ,  2-H ) :   1.0176

E(0)                                       ...   -437.754471938
E(0)                                       ...   -437.754471938
E(CORR)(strong-pairs)                      ...     -0.397234641
E(CORR)(weak-pairs)                        ...     -0.000118589
E(CORR)(corrected)                         ...     -0.397353230
E(TOT)                                     ...   -438.151825168
E(CCSD(T))                                 ...   -438.166811989
FINAL SINGLE POINT ENERGY      -438.166811988731

DIPOLE MOMENT
-------------
                                X             Y             Z
Electronic contribution:      3.18240      -0.98553      -0.00002
Nuclear contribution   :     -3.74898       1.34951       0.00000
                        -----------------------------------------
Total Dipole Moment    :     -0.56658       0.36398      -0.00002
                        -----------------------------------------
Magnitude (a.u.)       :      0.67342
Magnitude (Debye)      :      1.71170

Rotational constants in cm-1:     3.473299     0.428221     0.410661
Rotational constants in MHz : 104126.893193 12837.747737 12311.295230

                             ****ORCA TERMINATED NORMALLY****
TOTAL RUN TIME: 0 days 0 hours 0 minutes 31 seconds 947 msec
