                         Program Version 4.1.x  -  STABLE  -
|  1> ! RHF DLPNO-CCSD(T) cc-pVTZ RIJK cc-pVTZ/JK cc-pVTZ/C
|  2> ! KDIIS SOSCF TightSCF TightPNO
|  3>
|  4> %pal nprocs 8 end
|  5>
|  6> %maxcore 8000
|  7>
|  8> %scf maxiter 300
|  9>      shift shift 0.2 erroff 0.1 end
| 10> end
| 11>
| 12> * xyzfile 0 1 methylcyclohexane_ax.xyz
| 13>
| 14>
| 15>                          ****END OF INPUT****

CARTESIAN COORDINATES (ANGSTROEM)
---------------------------------
  C      1.130420    0.000000    0.493650
  C      0.252840    1.265640    0.630320
  C     -0.952940    1.270380   -0.325190
  C     -1.803730   -0.000000   -0.161900
  C     -0.952930   -1.270390   -0.325190
  C      0.252840   -1.265640    0.630320
  C      1.963990    0.000000   -0.799880
  H     -1.565430    2.162360   -0.143000
  H     -0.606480    1.344570   -1.365200
  H     -2.632010   -0.000010   -0.881560
  H     -2.259760    0.000010    0.839510
  H     -0.606480   -1.344550   -1.365200
  H     -1.565430   -2.162350   -0.143010
  H     -0.119900    1.323330    1.663300
  H      0.865430    2.162860    0.471650
  H      0.865430   -2.162870    0.471660
  H     -0.119910   -1.323330    1.663290
  H      1.842520    0.000000    1.331030
  H      1.340760    0.000010   -1.700150
  H      2.609150    0.885110   -0.847590
  H      2.609140   -0.885120   -0.847600

 Total Charge           Charge          ....    0
 Multiplicity           Mult            ....    1
 Number of Electrons    NEL             ....   56
 Basis Dimension        Dim             ....  406

ORBITAL ENERGIES
----------------

  NO   OCC          E(Eh)            E(eV)
   0   2.0000     -11.221464      -305.3516
   1   2.0000     -11.214117      -305.1516
   2   2.0000     -11.213630      -305.1384
   3   2.0000     -11.213335      -305.1304
   4   2.0000     -11.212820      -305.1164
   5   2.0000     -11.212764      -305.1148
   6   2.0000     -11.208246      -304.9919
   7   2.0000      -1.112236       -30.2655
   8   2.0000      -1.020809       -27.7776
   9   2.0000      -0.995433       -27.0871
  10   2.0000      -0.916781       -24.9469
  11   2.0000      -0.825391       -22.4600
  12   2.0000      -0.807692       -21.9784
  13   2.0000      -0.721311       -19.6279
  14   2.0000      -0.648530       -17.6474
  15   2.0000      -0.609695       -16.5906
  16   2.0000      -0.605244       -16.4695
  17   2.0000      -0.579365       -15.7653
  18   2.0000      -0.551915       -15.0184
  19   2.0000      -0.547391       -14.8953
  20   2.0000      -0.519028       -14.1235
  21   2.0000      -0.496775       -13.5179
  22   2.0000      -0.495412       -13.4809
  23   2.0000      -0.472004       -12.8439
  24   2.0000      -0.470430       -12.8011
  25   2.0000      -0.438499       -11.9322
  26   2.0000      -0.420310       -11.4372
  27   2.0000      -0.418769       -11.3953
  28   0.0000       0.134894         3.6706
  29   0.0000       0.156604         4.2614
  30   0.0000       0.163136         4.4392
  31   0.0000       0.170138         4.6297
  32   0.0000       0.198835         5.4106

MULLIKEN ATOMIC CHARGES
-----------------------
   0 C :   -0.084405
   1 C :   -0.197972
   2 C :   -0.206191
   3 C :   -0.188392
   4 C :   -0.206196
   5 C :   -0.197971
   6 C :   -0.312992
   7 H :    0.111077
   8 H :    0.091227
   9 H :    0.107391
  10 H :    0.083736
  11 H :    0.091228
  12 H :    0.111084
  13 H :    0.095943
  14 H :    0.103240
  15 H :    0.103237
  16 H :    0.095946
  17 H :    0.108800
  18 H :    0.090423
  19 H :    0.100394
  20 H :    0.100393
Sum of atomic charges:   -0.0000000

LOEWDIN ATOMIC CHARGES
----------------------
   0 C :   -0.014248
   1 C :    0.062471
   2 C :    0.057267
   3 C :    0.056788
   4 C :    0.057274
   5 C :    0.062469
   6 C :    0.110281
   7 H :   -0.027541
   8 H :   -0.029701
   9 H :   -0.028378
  10 H :   -0.027573
  11 H :   -0.029703
  12 H :   -0.027546
  13 H :   -0.025440
  14 H :   -0.027243
  15 H :   -0.027240
  16 H :   -0.025442
  17 H :   -0.023797
  18 H :   -0.035080
  19 H :   -0.028810
  20 H :   -0.028808

  Mayer bond orders larger than 0.1
B(  0-C ,  1-C ) :   0.9467 B(  0-C ,  5-C ) :   0.9467 B(  0-C ,  6-C ) :   0.9465
B(  0-C , 17-H ) :   0.9971 B(  1-C ,  2-C ) :   0.9459 B(  1-C , 13-H ) :   0.9910
B(  1-C , 14-H ) :   0.9955 B(  2-C ,  3-C ) :   0.9471 B(  2-C ,  7-H ) :   0.9940
B(  2-C ,  8-H ) :   0.9839 B(  3-C ,  4-C ) :   0.9471 B(  3-C ,  9-H ) :   0.9956
B(  3-C , 10-H ) :   0.9851 B(  4-C ,  5-C ) :   0.9459 B(  4-C , 11-H ) :   0.9839
B(  4-C , 12-H ) :   0.9940 B(  5-C , 15-H ) :   0.9955 B(  5-C , 16-H ) :   0.9910
B(  6-C , 18-H ) :   0.9791 B(  6-C , 19-H ) :   0.9865 B(  6-C , 20-H ) :   0.9865

E(0)                                       ...   -273.329690855
E(0)                                       ...   -273.329690855
E(CORR)(strong-pairs)                      ...     -1.290376750
E(CORR)(weak-pairs)                        ...     -0.001341744
E(CORR)(corrected)                         ...     -1.291718494
E(TOT)                                     ...   -274.621409349
E(CCSD(T))                                 ...   -274.672859462
FINAL SINGLE POINT ENERGY      -274.672859462000

DIPOLE MOMENT
-------------
                                X             Y             Z
Electronic contribution:     -0.70646      -0.00003       0.93843
Nuclear contribution   :      0.70377       0.00003      -0.91350
                        -----------------------------------------
Total Dipole Moment    :     -0.00269      -0.00000       0.02493
                        -----------------------------------------
Magnitude (a.u.)       :      0.02508
Magnitude (Debye)      :      0.06374

Rotational constants in cm-1:     0.116007     0.083092     0.063070
Rotational constants in MHz :  3477.813512  2491.038670  1890.801987

                             ****ORCA TERMINATED NORMALLY****
TOTAL RUN TIME: 0 days 0 hours 11 minutes 36 seconds 777 msec
