                         Program Version 4.1.x  -  STABLE  -
|  1> ! RHF DLPNO-CCSD(T) cc-pVTZ RIJK cc-pVTZ/JK cc-pVTZ/C
|  2> ! KDIIS SOSCF TightSCF TightPNO
|  3>
|  4> %pal nprocs 8 end
|  5>
|  6> %maxcore 8000
|  7>
|  8> %scf maxiter 300
|  9>      shift shift 0.2 erroff 0.1 end
| 10> end
| 11>
| 12> * xyzfile 0 1 methanol_anti.xyz
| 13>
| 14>
| 15>                          ****END OF INPUT****

CARTESIAN COORDINATES (ANGSTROEM)
---------------------------------
  C     -0.661930   -0.017790    0.000000
  O      0.739040    0.126810   -0.000000
  H      1.110210   -0.739120    0.000010
  H     -0.962740   -0.582400    0.913090
  H     -1.125450    0.996240    0.000000
  H     -0.962740   -0.582410   -0.913090

 Total Charge           Charge          ....    0
 Multiplicity           Mult            ....    1
 Number of Electrons    NEL             ....   18
 Basis Dimension        Dim             ....  116

ORBITAL ENERGIES
----------------

  NO   OCC          E(Eh)            E(eV)
   0   2.0000     -20.548426      -559.1511
   1   2.0000     -11.277292      -306.8707
   2   2.0000      -1.362420       -37.0733
   3   2.0000      -0.915605       -24.9149
   4   2.0000      -0.690010       -18.7761
   5   2.0000      -0.619288       -16.8517
   6   2.0000      -0.593066       -16.1382
   7   2.0000      -0.498147       -13.5553
   8   2.0000      -0.444075       -12.0839
   9   0.0000       0.137603         3.7444
  10   0.0000       0.180475         4.9110
  11   0.0000       0.217258         5.9119
  12   0.0000       0.222576         6.0566
  13   0.0000       0.287655         7.8275

MULLIKEN ATOMIC CHARGES
-----------------------
   0 C :   -0.006513
   1 O :   -0.398991
   2 H :    0.217472
   3 H :    0.050932
   4 H :    0.086170
   5 H :    0.050930
Sum of atomic charges:   -0.0000000

LOEWDIN ATOMIC CHARGES
----------------------
   0 C :    0.000186
   1 O :    0.333704
   2 H :   -0.223045
   3 H :   -0.042805
   4 H :   -0.025236
   5 H :   -0.042803

  Mayer bond orders larger than 0.1
B(  0-C ,  1-O ) :   0.9759 B(  0-C ,  3-H ) :   0.9764 B(  0-C ,  4-H ) :   0.9776
B(  0-C ,  5-H ) :   0.9764 B(  1-O ,  2-H ) :   1.0000

E(0)                                       ...   -115.087061828
E(0)                                       ...   -115.087061828
E(CORR)(strong-pairs)                      ...     -0.446437823
E(CORR)(weak-pairs)                        ...     -0.000157322
E(CORR)(corrected)                         ...     -0.446595145
E(TOT)                                     ...   -115.533656973
E(CCSD(T))                                 ...   -115.547875217
FINAL SINGLE POINT ENERGY      -115.547875217054

DIPOLE MOMENT
-------------
                                X             Y             Z
Electronic contribution:      1.69942       0.35954       0.00000
Nuclear contribution   :     -2.03523      -0.95554       0.00001
                        -----------------------------------------
Total Dipole Moment    :     -0.33581      -0.59601       0.00001
                        -----------------------------------------
Magnitude (a.u.)       :      0.68410
Magnitude (Debye)      :      1.73884

Rotational constants in cm-1:     4.096585     0.843249     0.812623
Rotational constants in MHz : 122812.539316 25279.979722 24361.827307

                             ****ORCA TERMINATED NORMALLY****
TOTAL RUN TIME: 0 days 0 hours 0 minutes 24 seconds 558 msec
