                         Program Version 4.1.x  -  STABLE  -
|  1> ! RHF DLPNO-CCSD(T) cc-pVTZ RIJK cc-pVTZ/JK cc-pVTZ/C
|  2> ! KDIIS SOSCF TightSCF TightPNO
|  3>
|  4> %pal nprocs 8 end
|  5>
|  6> %maxcore 8000
|  7>
|  8> %scf maxiter 300
|  9>      shift shift 0.2 erroff 0.1 end
| 10> end
| 11>
| 12> * xyzfile 0 1 methoxycyclohexane_eq.xyz
| 13>
| 14>
| 15>                          ****END OF INPUT****

CARTESIAN COORDINATES (ANGSTROEM)
---------------------------------
  C      0.601420   -0.196540    0.196660
  C     -0.325870   -1.348010   -0.196500
  C     -1.762380   -1.117110    0.300510
  C     -2.318510    0.231750   -0.182340
  C     -1.384360    1.388560    0.204730
  C      0.050350    1.149880   -0.299020
  O      1.890920   -0.495670   -0.344150
  C      2.963200    0.242000    0.214080
  H     -2.407430   -1.938480   -0.033920
  H     -1.776490   -1.140500    1.400080
  H     -3.321240    0.399400    0.229910
  H     -2.428540    0.207040   -1.276130
  H     -1.373390    1.493410    1.299660
  H     -1.764800    2.337650   -0.191970
  H     -0.316850   -1.433730   -1.291660
  H      0.079900   -2.286260    0.198410
  H      0.700100    1.973060    0.020540
  H      0.064360    1.137910   -1.397670
  H      0.682850   -0.164140    1.298960
  H      3.882790   -0.166530   -0.211910
  H      2.910270    1.312580   -0.029130
  H      2.997990    0.130780    1.309320

 Total Charge           Charge          ....    0
 Multiplicity           Mult            ....    1
 Number of Electrons    NEL             ....   64
 Basis Dimension        Dim             ....  436

ORBITAL ENERGIES
----------------

  NO   OCC          E(Eh)            E(eV)
   0   2.0000     -20.545242      -559.0645
   1   2.0000     -11.272488      -306.7400
   2   2.0000     -11.265975      -306.5628
   3   2.0000     -11.220751      -305.3322
   4   2.0000     -11.218648      -305.2749
   5   2.0000     -11.217756      -305.2507
   6   2.0000     -11.216216      -305.2087
   7   2.0000     -11.212712      -305.1134
   8   2.0000      -1.360317       -37.0161
   9   2.0000      -1.107677       -30.1414
  10   2.0000      -1.003192       -27.2983
  11   2.0000      -0.998047       -27.1582
  12   2.0000      -0.911043       -24.7907
  13   2.0000      -0.833327       -22.6760
  14   2.0000      -0.811587       -22.0844
  15   2.0000      -0.757212       -20.6048
  16   2.0000      -0.660037       -17.9605
  17   2.0000      -0.646194       -17.5838
  18   2.0000      -0.622864       -16.9490
  19   2.0000      -0.616346       -16.7716
  20   2.0000      -0.590371       -16.0648
  21   2.0000      -0.585299       -15.9268
  22   2.0000      -0.557377       -15.1670
  23   2.0000      -0.526053       -14.3146
  24   2.0000      -0.511860       -13.9284
  25   2.0000      -0.498124       -13.5547
  26   2.0000      -0.482801       -13.1377
  27   2.0000      -0.470834       -12.8120
  28   2.0000      -0.456512       -12.4223
  29   2.0000      -0.446683       -12.1549
  30   2.0000      -0.435623       -11.8539
  31   2.0000      -0.402186       -10.9440
  32   0.0000       0.138362         3.7650
  33   0.0000       0.151978         4.1355
  34   0.0000       0.159567         4.3421
  35   0.0000       0.168158         4.5758
  36   0.0000       0.189350         5.1525

MULLIKEN ATOMIC CHARGES
-----------------------
   0 C :    0.164647
   1 C :   -0.191136
   2 C :   -0.208548
   3 C :   -0.189318
   4 C :   -0.206349
   5 C :   -0.203382
   6 O :   -0.381697
   7 C :   -0.076168
   8 H :    0.110071
   9 H :    0.087231
  10 H :    0.108590
  11 H :    0.087930
  12 H :    0.088597
  13 H :    0.110433
  14 H :    0.092801
  15 H :    0.111030
  16 H :    0.104638
  17 H :    0.094556
  18 H :    0.064911
  19 H :    0.111454
  20 H :    0.062003
  21 H :    0.057706
Sum of atomic charges:    0.0000000

LOEWDIN ATOMIC CHARGES
----------------------
   0 C :   -0.128974
   1 C :    0.060743
   2 C :    0.058926
   3 C :    0.056565
   4 C :    0.059425
   5 C :    0.058653
   6 O :    0.251074
   7 C :   -0.000399
   8 H :   -0.025976
   9 H :   -0.027512
  10 H :   -0.027284
  11 H :   -0.026363
  12 H :   -0.027269
  13 H :   -0.026090
  14 H :   -0.022646
  15 H :   -0.023728
  16 H :   -0.030394
  17 H :   -0.023165
  18 H :   -0.034592
  19 H :   -0.031870
  20 H :   -0.045417
  21 H :   -0.043707

  Mayer bond orders larger than 0.1
B(  0-C ,  1-C ) :   0.9653 B(  0-C ,  5-C ) :   0.9518 B(  0-C ,  6-O ) :   0.9680
B(  0-C , 18-H ) :   0.9775 B(  1-C ,  2-C ) :   0.9425 B(  1-C , 14-H ) :   0.9809
B(  1-C , 15-H ) :   0.9915 B(  2-C ,  3-C ) :   0.9444 B(  2-C ,  8-H ) :   0.9934
B(  2-C ,  9-H ) :   0.9840 B(  3-C ,  4-C ) :   0.9483 B(  3-C , 10-H ) :   0.9946
B(  3-C , 11-H ) :   0.9841 B(  4-C ,  5-C ) :   0.9439 B(  4-C , 12-H ) :   0.9838
B(  4-C , 13-H ) :   0.9926 B(  5-C , 16-H ) :   0.9922 B(  5-C , 17-H ) :   0.9791
B(  6-O ,  7-C ) :   1.0011 B(  7-C , 19-H ) :   0.9850 B(  7-C , 20-H ) :   0.9673
B(  7-C , 21-H ) :   0.9699

E(0)                                       ...   -348.205927485
E(0)                                       ...   -348.205927485
E(CORR)(strong-pairs)                      ...     -1.516380280
E(CORR)(weak-pairs)                        ...     -0.001663901
E(CORR)(corrected)                         ...     -1.518044181
E(TOT)                                     ...   -349.723971665
E(CCSD(T))                                 ...   -349.783836745
FINAL SINGLE POINT ENERGY      -349.783836745356

DIPOLE MOMENT
-------------
                                X             Y             Z
Electronic contribution:      2.00157      -1.58457      -1.03335
Nuclear contribution   :     -2.14805       1.95195       1.38847
                        -----------------------------------------
Total Dipole Moment    :     -0.14648       0.36739       0.35513
                        -----------------------------------------
Magnitude (a.u.)       :      0.53155
Magnitude (Debye)      :      1.35109

Rotational constants in cm-1:     0.131778     0.044689     0.036082
Rotational constants in MHz :  3950.607469  1339.731399  1081.721664

                             ****ORCA TERMINATED NORMALLY****
TOTAL RUN TIME: 0 days 0 hours 19 minutes 22 seconds 761 msec
