                         Program Version 4.1.x  -  STABLE  -
|  1> ! RHF DLPNO-CCSD(T) cc-pVTZ RIJK cc-pVTZ/JK cc-pVTZ/C
|  2> ! KDIIS SOSCF TightSCF TightPNO
|  3>
|  4> %pal nprocs 8 end
|  5>
|  6> %maxcore 8000
|  7>
|  8> %scf maxiter 300
|  9>      shift shift 0.2 erroff 0.1 end
| 10> end
| 11>
| 12> * xyzfile 0 1 methyl_glycolate_cis.xyz
| 13>
| 14>
| 15>                          ****END OF INPUT****

CARTESIAN COORDINATES (ANGSTROEM)
---------------------------------
  C     -2.383730   -0.073010   -0.000030
  O     -1.087750   -0.703810   -0.000020
  C     -0.023650    0.133930    0.000050
  O     -0.105300    1.338410    0.000040
  C      1.256520   -0.686970    0.000050
  O      2.365210    0.186190   -0.000110
  H      1.233440   -1.337330    0.887010
  H      1.233340   -1.337540   -0.886750
  H      3.173160   -0.341660    0.000130
  H     -3.104010   -0.890420    0.000020
  H     -2.504030    0.548510    0.890530
  H     -2.504040    0.548410   -0.890670

 Total Charge           Charge          ....    0
 Multiplicity           Mult            ....    1
 Number of Electrons    NEL             ....   48
 Basis Dimension        Dim             ....  264

ORBITAL ENERGIES
----------------

  NO   OCC          E(Eh)            E(eV)
   0   2.0000     -20.604308      -560.6717
   1   2.0000     -20.569391      -559.7216
   2   2.0000     -20.543646      -559.0210
   3   2.0000     -11.379937      -309.6638
   4   2.0000     -11.304795      -307.6191
   5   2.0000     -11.288990      -307.1890
   6   2.0000      -1.457283       -39.6547
   7   2.0000      -1.376262       -37.4500
   8   2.0000      -1.353666       -36.8351
   9   2.0000      -1.020327       -27.7645
  10   2.0000      -0.935660       -25.4606
  11   2.0000      -0.775513       -21.1028
  12   2.0000      -0.727356       -19.7924
  13   2.0000      -0.685667       -18.6579
  14   2.0000      -0.685105       -18.6426
  15   2.0000      -0.662369       -18.0240
  16   2.0000      -0.637351       -17.3432
  17   2.0000      -0.587087       -15.9755
  18   2.0000      -0.543028       -14.7766
  19   2.0000      -0.540358       -14.7039
  20   2.0000      -0.526776       -14.3343
  21   2.0000      -0.466588       -12.6965
  22   2.0000      -0.460614       -12.5340
  23   2.0000      -0.447253       -12.1704
  24   0.0000       0.129473         3.5231
  25   0.0000       0.153782         4.1846
  26   0.0000       0.169892         4.6230
  27   0.0000       0.178479         4.8567
  28   0.0000       0.208203         5.6655

MULLIKEN ATOMIC CHARGES
-----------------------
   0 C :   -0.061373
   1 O :   -0.330778
   2 C :    0.384936
   3 O :   -0.379675
   4 C :    0.081843
   5 O :   -0.366754
   6 H :    0.074689
   7 H :    0.074699
   8 H :    0.220341
   9 H :    0.110233
  10 H :    0.095922
  11 H :    0.095917
Sum of atomic charges:   -0.0000000

LOEWDIN ATOMIC CHARGES
----------------------
   0 C :    0.059810
   1 O :    0.292396
   2 C :   -0.433859
   3 O :    0.129050
   4 C :   -0.058106
   5 O :    0.341572
   6 H :   -0.026365
   7 H :   -0.026365
   8 H :   -0.184393
   9 H :   -0.031153
  10 H :   -0.031295
  11 H :   -0.031291

  Mayer bond orders larger than 0.1
B(  0-C ,  1-O ) :   0.9093 B(  0-C ,  9-H ) :   0.9794 B(  0-C , 10-H ) :   0.9742
B(  0-C , 11-H ) :   0.9742 B(  1-O ,  2-C ) :   1.1583 B(  2-C ,  3-O ) :   2.0527
B(  2-C ,  4-C ) :   0.9596 B(  4-C ,  5-O ) :   1.0443 B(  4-C ,  6-H ) :   0.9658
B(  4-C ,  7-H ) :   0.9658 B(  5-O ,  8-H ) :   0.9916

E(0)                                       ...   -341.809533824
E(0)                                       ...   -341.809533824
E(CORR)(strong-pairs)                      ...     -1.228454880
E(CORR)(weak-pairs)                        ...     -0.001010609
E(CORR)(corrected)                         ...     -1.229465489
E(TOT)                                     ...   -343.038999314
E(CCSD(T))                                 ...   -343.086867733
FINAL SINGLE POINT ENERGY      -343.086867732963

DIPOLE MOMENT
-------------
                                X             Y             Z
Electronic contribution:      2.32640       1.41163      -0.00004
Nuclear contribution   :     -2.45555      -2.79925       0.00027
                        -----------------------------------------
Total Dipole Moment    :     -0.12915      -1.38761       0.00024
                        -----------------------------------------
Magnitude (a.u.)       :      1.39361
Magnitude (Debye)      :      3.54228

Rotational constants in cm-1:     0.329141     0.071853     0.060322
Rotational constants in MHz :  9867.403439  2154.087625  1808.402796

                             ****ORCA TERMINATED NORMALLY****
TOTAL RUN TIME: 0 days 0 hours 3 minutes 32 seconds 648 msec
