                         Program Version 4.1.x  -  STABLE  -
|  1> ! RHF DLPNO-CCSD(T) cc-pVTZ RIJK cc-pVTZ/JK cc-pVTZ/C
|  2> ! KDIIS SOSCF TightSCF TightPNO
|  3>
|  4> %pal nprocs 8 end
|  5>
|  6> %maxcore 8000
|  7>
|  8> %scf maxiter 300
|  9>      shift shift 0.2 erroff 0.1 end
| 10> end
| 11>
| 12> * xyzfile 0 1 methylformate_CO_Lp_g.xyz
| 13>
| 14>
| 15>                          ****END OF INPUT****

CARTESIAN COORDINATES (ANGSTROEM)
---------------------------------
  C     -0.830590    0.438230    0.000010
  O     -1.328010   -0.663760    0.000000
  O      0.500270    0.717570    0.000000
  C      1.366390   -0.400330   -0.000000
  H     -1.415360    1.389390   -0.000030
  H      1.203240   -1.012060    0.919380
  H      1.203160   -1.012100   -0.919340
  H      2.416030   -0.023080   -0.000050

 Total Charge           Charge          ....    0
 Multiplicity           Mult            ....    1
 Number of Electrons    NEL             ....   32
 Basis Dimension        Dim             ....  176

ORBITAL ENERGIES
----------------

  NO   OCC          E(Eh)            E(eV)
   0   2.0000     -20.614453      -560.9478
   1   2.0000     -20.559969      -559.4652
   2   2.0000     -11.390933      -309.9630
   3   2.0000     -11.298058      -307.4358
   4   2.0000      -1.463418       -39.8216
   5   2.0000      -1.370450       -37.2918
   6   2.0000      -0.981692       -26.7132
   7   2.0000      -0.815247       -22.1840
   8   2.0000      -0.733073       -19.9479
   9   2.0000      -0.680612       -18.5204
  10   2.0000      -0.674276       -18.3480
  11   2.0000      -0.597221       -16.2512
  12   2.0000      -0.549327       -14.9480
  13   2.0000      -0.526010       -14.3135
  14   2.0000      -0.467512       -12.7216
  15   2.0000      -0.465337       -12.6625
  16   0.0000       0.147702         4.0192
  17   0.0000       0.157941         4.2978
  18   0.0000       0.168653         4.5893
  19   0.0000       0.205570         5.5939
  20   0.0000       0.224785         6.1167

MULLIKEN ATOMIC CHARGES
-----------------------
   0 C :    0.343329
   1 O :   -0.389494
   2 O :   -0.296855
   3 C :   -0.034495
   4 H :    0.108254
   5 H :    0.083917
   6 H :    0.083918
   7 H :    0.101425
Sum of atomic charges:    0.0000000

LOEWDIN ATOMIC CHARGES
----------------------
   0 C :   -0.316747
   1 O :    0.114070
   2 O :    0.296676
   3 C :    0.015795
   4 H :   -0.035293
   5 H :   -0.026478
   6 H :   -0.026477
   7 H :   -0.021546

  Mayer bond orders larger than 0.1
B(  0-C ,  1-O ) :   2.0470 B(  0-C ,  2-O ) :   1.1630 B(  0-C ,  4-H ) :   0.9515
B(  2-O ,  3-C ) :   0.9182 B(  3-C ,  5-H ) :   0.9746 B(  3-C ,  6-H ) :   0.9746
B(  3-C ,  7-H ) :   0.9795

E(0)                                       ...   -227.871048371
E(0)                                       ...   -227.871048371
E(CORR)(strong-pairs)                      ...     -0.817814419
E(CORR)(weak-pairs)                        ...     -0.000479025
E(CORR)(corrected)                         ...     -0.818293443
E(TOT)                                     ...   -228.689341814
E(CCSD(T))                                 ...   -228.721857497
FINAL SINGLE POINT ENERGY      -228.721857496641

DIPOLE MOMENT
-------------
                                X             Y             Z
Electronic contribution:     -2.77699       1.11656       0.00004
Nuclear contribution   :      3.39665      -0.65751      -0.00004
                        -----------------------------------------
Total Dipole Moment    :      0.61966       0.45905       0.00000
                        -----------------------------------------
Magnitude (a.u.)       :      0.77117
Magnitude (Debye)      :      1.96015

Rotational constants in cm-1:     0.678801     0.222810     0.173636
Rotational constants in MHz : 20349.946492  6679.663673  5205.486878

                             ****ORCA TERMINATED NORMALLY****
TOTAL RUN TIME: 0 days 0 hours 1 minutes 32 seconds 618 msec
