                         Program Version 4.1.x  -  STABLE  -
|  1> ! RHF DLPNO-CCSD(T) cc-pVTZ RIJK cc-pVTZ/JK cc-pVTZ/C
|  2> ! KDIIS SOSCF TightSCF TightPNO
|  3>
|  4> %pal nprocs 8 end
|  5>
|  6> %maxcore 8000
|  7>
|  8> %scf maxiter 300
|  9>      shift shift 0.2 erroff 0.1 end
| 10> end
| 11>
| 12> * xyzfile 0 1 methylformate_H_Lp_ecl.xyz
| 13>
| 14>
| 15>                          ****END OF INPUT****

CARTESIAN COORDINATES (ANGSTROEM)
---------------------------------
  C     -0.839640    0.433110    0.000010
  O     -1.361360   -0.657360    0.000020
  O      0.493850    0.700780    0.000100
  C      1.400870   -0.388180   -0.000060
  H     -1.412560    1.391670   -0.000440
  H      2.047350   -0.315160    0.906440
  H      0.890510   -1.378580   -0.000260
  H      2.047490   -0.314790   -0.906410

 Total Charge           Charge          ....    0
 Multiplicity           Mult            ....    1
 Number of Electrons    NEL             ....   32
 Basis Dimension        Dim             ....  176

ORBITAL ENERGIES
----------------

  NO   OCC          E(Eh)            E(eV)
   0   2.0000     -20.614601      -560.9518
   1   2.0000     -20.558689      -559.4304
   2   2.0000     -11.392214      -309.9979
   3   2.0000     -11.296646      -307.3974
   4   2.0000      -1.460949       -39.7545
   5   2.0000      -1.370480       -37.2927
   6   2.0000      -0.983223       -26.7549
   7   2.0000      -0.815385       -22.1878
   8   2.0000      -0.733958       -19.9720
   9   2.0000      -0.681209       -18.5366
  10   2.0000      -0.669589       -18.2204
  11   2.0000      -0.595132       -16.1944
  12   2.0000      -0.554807       -15.0971
  13   2.0000      -0.524361       -14.2686
  14   2.0000      -0.465874       -12.6771
  15   2.0000      -0.462801       -12.5935
  16   0.0000       0.146305         3.9812
  17   0.0000       0.158356         4.3091
  18   0.0000       0.169246         4.6054
  19   0.0000       0.214862         5.8467
  20   0.0000       0.223253         6.0750

MULLIKEN ATOMIC CHARGES
-----------------------
   0 C :    0.349206
   1 O :   -0.391425
   2 O :   -0.298126
   3 C :   -0.039078
   4 H :    0.104837
   5 H :    0.085119
   6 H :    0.104337
   7 H :    0.085132
Sum of atomic charges:    0.0000000

LOEWDIN ATOMIC CHARGES
----------------------
   0 C :   -0.317967
   1 O :    0.111360
   2 O :    0.297281
   3 C :    0.023421
   4 H :   -0.034538
   5 H :   -0.026274
   6 H :   -0.027002
   7 H :   -0.026280

  Mayer bond orders larger than 0.1
B(  0-C ,  1-O ) :   2.0482 B(  0-C ,  2-O ) :   1.1638 B(  0-C ,  4-H ) :   0.9518
B(  2-O ,  3-C ) :   0.9062 B(  3-C ,  5-H ) :   0.9797 B(  3-C ,  6-H ) :   0.9689
B(  3-C ,  7-H ) :   0.9797

E(0)                                       ...   -227.869335190
E(0)                                       ...   -227.869335190
E(CORR)(strong-pairs)                      ...     -0.817876364
E(CORR)(weak-pairs)                        ...     -0.000478609
E(CORR)(corrected)                         ...     -0.818354973
E(TOT)                                     ...   -228.687690162
E(CCSD(T))                                 ...   -228.720302783
FINAL SINGLE POINT ENERGY      -228.720302782688

DIPOLE MOMENT
-------------
                                X             Y             Z
Electronic contribution:     -2.91900       1.05346       0.00048
Nuclear contribution   :      3.56185      -0.61666      -0.00067
                        -----------------------------------------
Total Dipole Moment    :      0.64285       0.43680      -0.00018
                        -----------------------------------------
Magnitude (a.u.)       :      0.77720
Magnitude (Debye)      :      1.97550

Rotational constants in cm-1:     0.697117     0.214281     0.169356
Rotational constants in MHz : 20899.049750  6423.993254  5077.158344

                             ****ORCA TERMINATED NORMALLY****
TOTAL RUN TIME: 0 days 0 hours 1 minutes 34 seconds 598 msec
