                         Program Version 4.1.x  -  STABLE  -
|  1> ! RHF DLPNO-CCSD(T) cc-pVTZ RIJK cc-pVTZ/JK cc-pVTZ/C
|  2> ! KDIIS SOSCF TightSCF TightPNO
|  3>
|  4> %pal nprocs 8 end
|  5>
|  6> %maxcore 8000
|  7>
|  8> %scf maxiter 300
|  9>      shift shift 0.2 erroff 0.1 end
| 10> end
| 11>
| 12> * xyzfile 0 1 N_2_dimethylpiperidine_eq_eq.xyz
| 13>
| 14>
| 15>                          ****END OF INPUT****

CARTESIAN COORDINATES (ANGSTROEM)
---------------------------------
  C     -1.941620    0.730680    0.243700
  C     -0.642790    1.456470   -0.121350
  C      0.614720    0.673470    0.299020
  N      0.573070   -0.688470   -0.270920
  C     -0.637300   -1.413520    0.134660
  C     -1.913260   -0.697950   -0.308460
  C      1.871220    1.440520   -0.131080
  C      1.758280   -1.480670    0.043720
  H      0.617420    0.603670    1.409630
  H     -0.661280   -1.555380    1.236930
  H     -0.594500   -2.413320   -0.311810
  H     -0.601050    1.614440   -1.207810
  H     -0.612650    2.446390    0.350350
  H     -2.786610   -1.268020    0.031650
  H     -1.944550   -0.673510   -1.405340
  H     -2.046970    0.696080    1.337760
  H     -2.809460    1.281320   -0.139140
  H      1.927240   -1.588070    1.134380
  H      1.641270   -2.483510   -0.378130
  H      2.652980   -1.039650   -0.399790
  H      1.795420    2.481840    0.199110
  H      2.787940    1.029540    0.300210
  H      1.967830    1.433410   -1.222800

 Total Charge           Charge          ....    0
 Multiplicity           Mult            ....    1
 Number of Electrons    NEL             ....   64
 Basis Dimension        Dim             ....  450

ORBITAL ENERGIES
----------------

  NO   OCC          E(Eh)            E(eV)
   0   2.0000     -15.539596      -422.8539
   1   2.0000     -11.250535      -306.1426
   2   2.0000     -11.241619      -305.9000
   3   2.0000     -11.236920      -305.7721
   4   2.0000     -11.215721      -305.1953
   5   2.0000     -11.214023      -305.1491
   6   2.0000     -11.213451      -305.1335
   7   2.0000     -11.209817      -305.0346
   8   2.0000      -1.223026       -33.2802
   9   2.0000      -1.065821       -29.0025
  10   2.0000      -1.035228       -28.1700
  11   2.0000      -0.943047       -25.6616
  12   2.0000      -0.912454       -24.8291
  13   2.0000      -0.837328       -22.7848
  14   2.0000      -0.802836       -21.8463
  15   2.0000      -0.746421       -20.3111
  16   2.0000      -0.645229       -17.5576
  17   2.0000      -0.629557       -17.1311
  18   2.0000      -0.614825       -16.7302
  19   2.0000      -0.605770       -16.4838
  20   2.0000      -0.592720       -16.1287
  21   2.0000      -0.553032       -15.0488
  22   2.0000      -0.537606       -14.6290
  23   2.0000      -0.531454       -14.4616
  24   2.0000      -0.518657       -14.1134
  25   2.0000      -0.509508       -13.8644
  26   2.0000      -0.495347       -13.4791
  27   2.0000      -0.472916       -12.8687
  28   2.0000      -0.460887       -12.5414
  29   2.0000      -0.439122       -11.9491
  30   2.0000      -0.430664       -11.7190
  31   2.0000      -0.348521        -9.4837
  32   0.0000       0.144867         3.9420
  33   0.0000       0.154893         4.2148
  34   0.0000       0.161418         4.3924
  35   0.0000       0.164050         4.4640
  36   0.0000       0.193487         5.2651

MULLIKEN ATOMIC CHARGES
-----------------------
   0 C :   -0.198785
   1 C :   -0.184416
   2 C :    0.054262
   3 N :   -0.251173
   4 C :   -0.076207
   5 C :   -0.178833
   6 C :   -0.322599
   7 C :   -0.199913
   8 H :    0.069313
   9 H :    0.056286
  10 H :    0.095560
  11 H :    0.088153
  12 H :    0.102760
  13 H :    0.102475
  14 H :    0.088441
  15 H :    0.088448
  16 H :    0.107083
  17 H :    0.059729
  18 H :    0.096977
  19 H :    0.100860
  20 H :    0.100392
  21 H :    0.102254
  22 H :    0.098933
Sum of atomic charges:    0.0000000

LOEWDIN ATOMIC CHARGES
----------------------
   0 C :    0.054170
   1 C :    0.059855
   2 C :   -0.088429
   3 N :    0.242697
   4 C :   -0.016023
   5 C :    0.055296
   6 C :    0.111017
   7 C :    0.036926
   8 H :   -0.038518
   9 H :   -0.040914
  10 H :   -0.027710
  11 H :   -0.023269
  12 H :   -0.025053
  13 H :   -0.026036
  14 H :   -0.025068
  15 H :   -0.027032
  16 H :   -0.026983
  17 H :   -0.045011
  18 H :   -0.030944
  19 H :   -0.034100
  20 H :   -0.025610
  21 H :   -0.033222
  22 H :   -0.026037

  Mayer bond orders larger than 0.1
B(  0-C ,  1-C ) :   0.9594 B(  0-C ,  5-C ) :   0.9516 B(  0-C , 15-H ) :   0.9852
B(  0-C , 16-H ) :   0.9942 B(  1-C ,  2-C ) :   0.9531 B(  1-C , 11-H ) :   0.9798
B(  1-C , 12-H ) :   0.9941 B(  2-C ,  3-N ) :   0.9687 B(  2-C ,  6-C ) :   0.9566
B(  2-C ,  8-H ) :   0.9699 B(  3-N ,  4-C ) :   0.9808 B(  3-N ,  7-C ) :   0.9840
B(  4-C ,  5-C ) :   0.9629 B(  4-C ,  9-H ) :   0.9718 B(  4-C , 10-H ) :   0.9920
B(  5-C , 13-H ) :   0.9939 B(  5-C , 14-H ) :   0.9809 B(  6-C , 20-H ) :   0.9859
B(  6-C , 21-H ) :   0.9865 B(  6-C , 22-H ) :   0.9782 B(  7-C , 17-H ) :   0.9656
B(  7-C , 18-H ) :   0.9873 B(  7-C , 19-H ) :   0.9837

E(0)                                       ...   -328.362348082
E(0)                                       ...   -328.362348082
E(CORR)(strong-pairs)                      ...     -1.502837239
E(CORR)(weak-pairs)                        ...     -0.001655975
E(CORR)(corrected)                         ...     -1.504493215
E(TOT)                                     ...   -329.866841297
E(CCSD(T))                                 ...   -329.927574308
FINAL SINGLE POINT ENERGY      -329.927574307606

DIPOLE MOMENT
-------------
                                X             Y             Z
Electronic contribution:     -1.44572      -0.60149      -0.76753
Nuclear contribution   :      1.41894       0.59587       0.99127
                        -----------------------------------------
Total Dipole Moment    :     -0.02678      -0.00562       0.22375
                        -----------------------------------------
Magnitude (a.u.)       :      0.22541
Magnitude (Debye)      :      0.57296

Rotational constants in cm-1:     0.092269     0.065202     0.041365
Rotational constants in MHz :  2766.150434  1954.704440  1240.103996

                             ****ORCA TERMINATED NORMALLY****
TOTAL RUN TIME: 0 days 0 hours 23 minutes 12 seconds 138 msec
