                         Program Version 4.1.x  -  STABLE  -
|  1> ! RHF DLPNO-CCSD(T) cc-pVTZ RIJK cc-pVTZ/JK cc-pVTZ/C
|  2> ! KDIIS SOSCF TightSCF TightPNO
|  3>
|  4> %pal nprocs 8 end
|  5>
|  6> %maxcore 8000
|  7>
|  8> %scf maxiter 300
|  9>      shift shift 0.2 erroff 0.1 end
| 10> end
| 11>
| 12> * xyzfile 0 1 N_2_dimethylpiperidine_eq_ax.xyz
| 13>
| 14>
| 15>                          ****END OF INPUT****

CARTESIAN COORDINATES (ANGSTROEM)
---------------------------------
  C     -1.967150    0.155880    0.131040
  C     -1.079400    1.016650   -0.780490
  C      0.414100    0.916270   -0.411790
  N      0.811170   -0.506290   -0.418420
  C      0.030500   -1.353700    0.483870
  C     -1.462830   -1.293370    0.146420
  C      0.747860    1.689790    0.884390
  C      2.243440   -0.724940   -0.287480
  H      0.987070    1.386200   -1.222970
  H      0.184000   -1.083620    1.548860
  H      0.394870   -2.381800    0.371580
  H     -1.197780    0.676360   -1.816850
  H     -1.393590    2.067070   -0.745660
  H     -2.026430   -1.894390    0.870710
  H     -1.616660   -1.743830   -0.842830
  H     -1.963060    0.558620    1.153110
  H     -3.008160    0.196000   -0.211840
  H      2.643200   -0.517780    0.723410
  H      2.475890   -1.768490   -0.527310
  H      2.780030   -0.088880   -0.999930
  H      1.817360    1.644600    1.113240
  H      0.481680    2.746070    0.765170
  H      0.204360    1.308420    1.754540

 Total Charge           Charge          ....    0
 Multiplicity           Mult            ....    1
 Number of Electrons    NEL             ....   64
 Basis Dimension        Dim             ....  450

ORBITAL ENERGIES
----------------

  NO   OCC          E(Eh)            E(eV)
   0   2.0000     -15.535142      -422.7327
   1   2.0000     -11.249502      -306.1145
   2   2.0000     -11.240967      -305.8823
   3   2.0000     -11.237348      -305.7838
   4   2.0000     -11.215466      -305.1883
   5   2.0000     -11.213692      -305.1401
   6   2.0000     -11.212884      -305.1181
   7   2.0000     -11.208611      -305.0018
   8   2.0000      -1.220547       -33.2128
   9   2.0000      -1.064026       -28.9536
  10   2.0000      -1.028958       -27.9994
  11   2.0000      -0.947322       -25.7779
  12   2.0000      -0.910295       -24.7704
  13   2.0000      -0.836106       -22.7516
  14   2.0000      -0.818066       -22.2607
  15   2.0000      -0.722211       -19.6523
  16   2.0000      -0.658346       -17.9145
  17   2.0000      -0.627324       -17.0704
  18   2.0000      -0.617824       -16.8119
  19   2.0000      -0.599920       -16.3247
  20   2.0000      -0.571238       -15.5442
  21   2.0000      -0.560506       -15.2522
  22   2.0000      -0.545387       -14.8407
  23   2.0000      -0.538585       -14.6556
  24   2.0000      -0.525405       -14.2970
  25   2.0000      -0.505139       -13.7455
  26   2.0000      -0.491523       -13.3750
  27   2.0000      -0.476360       -12.9624
  28   2.0000      -0.454945       -12.3797
  29   2.0000      -0.438273       -11.9260
  30   2.0000      -0.432511       -11.7692
  31   2.0000      -0.340023        -9.2525
  32   0.0000       0.136848         3.7238
  33   0.0000       0.159347         4.3360
  34   0.0000       0.162467         4.4209
  35   0.0000       0.164544         4.4775
  36   0.0000       0.192714         5.2440

MULLIKEN ATOMIC CHARGES
-----------------------
   0 C :   -0.211829
   1 C :   -0.187563
   2 C :    0.007013
   3 N :   -0.240689
   4 C :   -0.083998
   5 C :   -0.180080
   6 C :   -0.320431
   7 C :   -0.198886
   8 H :    0.104507
   9 H :    0.064396
  10 H :    0.099320
  11 H :    0.098241
  12 H :    0.099811
  13 H :    0.102339
  14 H :    0.087816
  15 H :    0.093247
  16 H :    0.111812
  17 H :    0.061616
  18 H :    0.098197
  19 H :    0.092435
  20 H :    0.105324
  21 H :    0.103725
  22 H :    0.093677
Sum of atomic charges:   -0.0000000

LOEWDIN ATOMIC CHARGES
----------------------
   0 C :    0.055066
   1 C :    0.062696
   2 C :   -0.086263
   3 N :    0.247974
   4 C :   -0.017155
   5 C :    0.056630
   6 C :    0.107029
   7 C :    0.031945
   8 H :   -0.023890
   9 H :   -0.043103
  10 H :   -0.026874
  11 H :   -0.023172
  12 H :   -0.026456
  13 H :   -0.027070
  14 H :   -0.025206
  15 H :   -0.029721
  16 H :   -0.026937
  17 H :   -0.047526
  18 H :   -0.031761
  19 H :   -0.030908
  20 H :   -0.031851
  21 H :   -0.027551
  22 H :   -0.035895

  Mayer bond orders larger than 0.1
B(  0-C ,  1-C ) :   0.9518 B(  0-C ,  5-C ) :   0.9514 B(  0-C , 15-H ) :   0.9844
B(  0-C , 16-H ) :   0.9931 B(  1-C ,  2-C ) :   0.9549 B(  1-C , 11-H ) :   0.9891
B(  1-C , 12-H ) :   0.9946 B(  2-C ,  3-N ) :   1.0044 B(  2-C ,  6-C ) :   0.9401
B(  2-C ,  8-H ) :   0.9951 B(  3-N ,  4-C ) :   0.9742 B(  3-N ,  7-C ) :   0.9930
B(  4-C ,  5-C ) :   0.9608 B(  4-C ,  9-H ) :   0.9717 B(  4-C , 10-H ) :   0.9904
B(  5-C , 13-H ) :   0.9942 B(  5-C , 14-H ) :   0.9825 B(  6-C , 20-H ) :   0.9843
B(  6-C , 21-H ) :   0.9808 B(  6-C , 22-H ) :   0.9768 B(  7-C , 17-H ) :   0.9649
B(  7-C , 18-H ) :   0.9859 B(  7-C , 19-H ) :   0.9822

E(0)                                       ...   -328.359413271
E(0)                                       ...   -328.359413271
E(CORR)(strong-pairs)                      ...     -1.502576371
E(CORR)(weak-pairs)                        ...     -0.001654540
E(CORR)(corrected)                         ...     -1.504230912
E(TOT)                                     ...   -329.863644183
E(CCSD(T))                                 ...   -329.924306821
FINAL SINGLE POINT ENERGY      -329.924306821445

DIPOLE MOMENT
-------------
                                X             Y             Z
Electronic contribution:     -0.79682      -1.07422      -1.86582
Nuclear contribution   :      0.81493       1.16962       2.05003
                        -----------------------------------------
Total Dipole Moment    :      0.01811       0.09540       0.18421
                        -----------------------------------------
Magnitude (a.u.)       :      0.20824
Magnitude (Debye)      :      0.52930

Rotational constants in cm-1:     0.089566     0.065693     0.046982
Rotational constants in MHz :  2685.130613  1969.429076  1408.471335

                             ****ORCA TERMINATED NORMALLY****
TOTAL RUN TIME: 0 days 0 hours 24 minutes 47 seconds 968 msec
