                         Program Version 4.1.x  -  STABLE  -
|  1> ! RHF DLPNO-CCSD(T) cc-pVTZ RIJK cc-pVTZ/JK cc-pVTZ/C
|  2> ! KDIIS SOSCF TightSCF TightPNO
|  3>
|  4> %pal nprocs 8 end
|  5>
|  6> %maxcore 8000
|  7>
|  8> %scf maxiter 300
|  9>      shift shift 0.2 erroff 0.1 end
| 10> end
| 11>
| 12> * xyzfile 0 1 N_3_dimethylpiperidine_eq_ax.xyz
| 13>
| 14>
| 15>                          ****END OF INPUT****

CARTESIAN COORDINATES (ANGSTROEM)
---------------------------------
  C      1.462010    0.894060    0.548090
  C      1.239470   -0.631820    0.479750
  C     -0.253770   -0.935710    0.700080
  N     -1.107400   -0.221550   -0.251890
  C     -0.950380    1.228320   -0.124230
  C      0.499350    1.651590   -0.378800
  C     -2.500840   -0.624940   -0.131850
  C      1.768300   -1.255080   -0.822140
  H     -0.436960   -2.010560    0.582710
  H     -1.262800    1.570640    0.887040
  H     -1.619300    1.711580   -0.845670
  H      1.784430   -1.091210    1.316380
  H      0.594640    2.733230   -0.223570
  H      0.747960    1.455530   -1.428540
  H      1.294520    1.228730    1.581860
  H      2.503530    1.137510    0.303880
  H     -2.934270   -0.387100    0.860760
  H     -3.101190   -0.117440   -0.894080
  H     -2.590330   -1.704470   -0.290940
  H     -0.528090   -0.673150    1.744880
  H      1.219520   -0.890270   -1.694800
  H      2.830890   -1.024420   -0.961550
  H      1.664350   -2.346210   -0.800550

 Total Charge           Charge          ....    0
 Multiplicity           Mult            ....    1
 Number of Electrons    NEL             ....   64
 Basis Dimension        Dim             ....  450

ORBITAL ENERGIES
----------------

  NO   OCC          E(Eh)            E(eV)
   0   2.0000     -15.539688      -422.8564
   1   2.0000     -11.242684      -305.9290
   2   2.0000     -11.241423      -305.8947
   3   2.0000     -11.238987      -305.8284
   4   2.0000     -11.222402      -305.3771
   5   2.0000     -11.215555      -305.1908
   6   2.0000     -11.214794      -305.1701
   7   2.0000     -11.204535      -304.8909
   8   2.0000      -1.225019       -33.3345
   9   2.0000      -1.076617       -29.2962
  10   2.0000      -1.021762       -27.8035
  11   2.0000      -0.931814       -25.3559
  12   2.0000      -0.921399       -25.0725
  13   2.0000      -0.834800       -22.7161
  14   2.0000      -0.817257       -22.2387
  15   2.0000      -0.725793       -19.7498
  16   2.0000      -0.655943       -17.8491
  17   2.0000      -0.628693       -17.1076
  18   2.0000      -0.617028       -16.7902
  19   2.0000      -0.606449       -16.5023
  20   2.0000      -0.578180       -15.7331
  21   2.0000      -0.562482       -15.3059
  22   2.0000      -0.545153       -14.8344
  23   2.0000      -0.537550       -14.6275
  24   2.0000      -0.520307       -14.1583
  25   2.0000      -0.501671       -13.6512
  26   2.0000      -0.491029       -13.3616
  27   2.0000      -0.475481       -12.9385
  28   2.0000      -0.453300       -12.3349
  29   2.0000      -0.434633       -11.8270
  30   2.0000      -0.432885       -11.7794
  31   2.0000      -0.348443        -9.4816
  32   0.0000       0.136609         3.7173
  33   0.0000       0.157965         4.2984
  34   0.0000       0.163261         4.4426
  35   0.0000       0.166491         4.5304
  36   0.0000       0.192290         5.2325

MULLIKEN ATOMIC CHARGES
-----------------------
   0 C :   -0.198185
   1 C :   -0.085710
   2 C :   -0.083055
   3 N :   -0.239721
   4 C :   -0.072581
   5 C :   -0.203181
   6 C :   -0.185520
   7 C :   -0.307651
   8 H :    0.094602
   9 H :    0.055707
  10 H :    0.095805
  11 H :    0.109362
  12 H :    0.110118
  13 H :    0.097343
  14 H :    0.098249
  15 H :    0.104017
  16 H :    0.055237
  17 H :    0.093284
  18 H :    0.093255
  19 H :    0.076334
  20 H :    0.102585
  21 H :    0.093828
  22 H :    0.095877
Sum of atomic charges:   -0.0000000

LOEWDIN ATOMIC CHARGES
----------------------
   0 C :    0.061093
   1 C :   -0.016959
   2 C :   -0.011560
   3 N :    0.242408
   4 C :   -0.017222
   5 C :    0.057827
   6 C :    0.033534
   7 C :    0.112207
   8 H :   -0.026674
   9 H :   -0.041058
  10 H :   -0.027906
  11 H :   -0.022275
  12 H :   -0.025738
  13 H :   -0.026696
  14 H :   -0.025182
  15 H :   -0.026667
  16 H :   -0.045294
  17 H :   -0.031701
  18 H :   -0.031692
  19 H :   -0.038633
  20 H :   -0.031588
  21 H :   -0.030682
  22 H :   -0.029541

  Mayer bond orders larger than 0.1
B(  0-C ,  1-C ) :   0.9483 B(  0-C ,  5-C ) :   0.9485 B(  0-C , 14-H ) :   0.9906
B(  0-C , 15-H ) :   0.9941 B(  1-C ,  2-C ) :   0.9603 B(  1-C ,  7-C ) :   0.9455
B(  1-C , 11-H ) :   0.9956 B(  2-C ,  3-N ) :   0.9644 B(  2-C ,  8-H ) :   0.9908
B(  2-C , 19-H ) :   0.9858 B(  3-N ,  4-C ) :   0.9810 B(  3-N ,  6-C ) :   0.9938
B(  4-C ,  5-C ) :   0.9612 B(  4-C ,  9-H ) :   0.9737 B(  4-C , 10-H ) :   0.9910
B(  5-C , 12-H ) :   0.9923 B(  5-C , 13-H ) :   0.9820 B(  6-C , 16-H ) :   0.9659
B(  6-C , 17-H ) :   0.9854 B(  6-C , 18-H ) :   0.9851 B(  7-C , 20-H ) :   0.9746
B(  7-C , 21-H ) :   0.9872 B(  7-C , 22-H ) :   0.9875

E(0)                                       ...   -328.362165777
E(0)                                       ...   -328.362165777
E(CORR)(strong-pairs)                      ...     -1.502115697
E(CORR)(weak-pairs)                        ...     -0.001643477
E(CORR)(corrected)                         ...     -1.503759174
E(TOT)                                     ...   -329.865924950
E(CCSD(T))                                 ...   -329.926501665
FINAL SINGLE POINT ENERGY      -329.926501664528

DIPOLE MOMENT
-------------
                                X             Y             Z
Electronic contribution:     -0.22013       0.51521       0.06949
Nuclear contribution   :      0.17032      -0.43418       0.14476
                        -----------------------------------------
Total Dipole Moment    :     -0.04981       0.08102       0.21425
                        -----------------------------------------
Magnitude (a.u.)       :      0.23441
Magnitude (Debye)      :      0.59583

Rotational constants in cm-1:     0.096261     0.059389     0.044687
Rotational constants in MHz :  2885.841657  1780.433624  1339.669292

                             ****ORCA TERMINATED NORMALLY****
TOTAL RUN TIME: 0 days 0 hours 22 minutes 8 seconds 759 msec
