                         Program Version 4.1.x  -  STABLE  -
|  1> ! RHF DLPNO-CCSD(T) cc-pVTZ RIJK cc-pVTZ/JK cc-pVTZ/C
|  2> ! KDIIS SOSCF TightSCF TightPNO
|  3>
|  4> %pal nprocs 8 end
|  5>
|  6> %maxcore 8000
|  7>
|  8> %scf maxiter 300
|  9>      shift shift 0.2 erroff 0.1 end
| 10> end
| 11>
| 12> * xyzfile 0 1 N_3_dimethylpiperidine_eq_eq.xyz
| 13>
| 14>
| 15>                          ****END OF INPUT****

CARTESIAN COORDINATES (ANGSTROEM)
---------------------------------
  C      1.240520    1.145870    0.180090
  C      1.261580   -0.299970   -0.343890
  C     -0.012290   -1.032790    0.103170
  N     -1.226770   -0.328790   -0.310970
  C     -1.281440    1.024350    0.244060
  C     -0.069790    1.850640   -0.195160
  C     -2.425730   -1.090850    0.007420
  C      2.519870   -1.056700    0.096800
  H     -0.034780   -2.037950   -0.335050
  H     -1.324580    0.994910    1.354750
  H     -2.208090    1.498350   -0.099530
  H      1.241890   -0.262660   -1.442570
  H     -0.119270    2.844160    0.267000
  H     -0.115050    1.993880   -1.282270
  H      1.345730    1.129380    1.275800
  H      2.102730    1.702010   -0.209470
  H     -2.560570   -1.248970    1.096580
  H     -3.309530   -0.566730   -0.370800
  H     -2.380430   -2.072860   -0.474680
  H      0.014390   -1.163670    1.207820
  H      2.575140   -1.131350    1.190010
  H      2.537600   -2.075070   -0.308900
  H      3.425930   -0.545220   -0.246880

 Total Charge           Charge          ....    0
 Multiplicity           Mult            ....    1
 Number of Electrons    NEL             ....   64
 Basis Dimension        Dim             ....  450

ORBITAL ENERGIES
----------------

  NO   OCC          E(Eh)            E(eV)
   0   2.0000     -15.539512      -422.8516
   1   2.0000     -11.242408      -305.9215
   2   2.0000     -11.241151      -305.8873
   3   2.0000     -11.238749      -305.8219
   4   2.0000     -11.221407      -305.3500
   5   2.0000     -11.215531      -305.1901
   6   2.0000     -11.214921      -305.1735
   7   2.0000     -11.211650      -305.0845
   8   2.0000      -1.224657       -33.3246
   9   2.0000      -1.079274       -29.3685
  10   2.0000      -1.024817       -27.8867
  11   2.0000      -0.933470       -25.4010
  12   2.0000      -0.921682       -25.0802
  13   2.0000      -0.834998       -22.7214
  14   2.0000      -0.805471       -21.9180
  15   2.0000      -0.748522       -20.3683
  16   2.0000      -0.650171       -17.6920
  17   2.0000      -0.629229       -17.1222
  18   2.0000      -0.613222       -16.6866
  19   2.0000      -0.604208       -16.4413
  20   2.0000      -0.592381       -16.1195
  21   2.0000      -0.548331       -14.9209
  22   2.0000      -0.544227       -14.8092
  23   2.0000      -0.534649       -14.5485
  24   2.0000      -0.525770       -14.3069
  25   2.0000      -0.514887       -14.0108
  26   2.0000      -0.487558       -13.2671
  27   2.0000      -0.474881       -12.9222
  28   2.0000      -0.455870       -12.4048
  29   2.0000      -0.437471       -11.9042
  30   2.0000      -0.433332       -11.7916
  31   2.0000      -0.348839        -9.4924
  32   0.0000       0.142038         3.8651
  33   0.0000       0.155537         4.2324
  34   0.0000       0.159964         4.3528
  35   0.0000       0.165060         4.4915
  36   0.0000       0.192723         5.2443

MULLIKEN ATOMIC CHARGES
-----------------------
   0 C :   -0.189392
   1 C :   -0.066154
   2 C :   -0.056357
   3 N :   -0.239280
   4 C :   -0.070261
   5 C :   -0.192213
   6 C :   -0.186931
   7 C :   -0.312584
   8 H :    0.092171
   9 H :    0.057260
  10 H :    0.095893
  11 H :    0.098720
  12 H :    0.103263
  13 H :    0.090618
  14 H :    0.086976
  15 H :    0.104774
  16 H :    0.055144
  17 H :    0.093553
  18 H :    0.093523
  19 H :    0.054498
  20 H :    0.087974
  21 H :    0.098556
  22 H :    0.100250
Sum of atomic charges:    0.0000000

LOEWDIN ATOMIC CHARGES
----------------------
   0 C :    0.058779
   1 C :   -0.021418
   2 C :   -0.013203
   3 N :    0.241948
   4 C :   -0.017338
   5 C :    0.058252
   6 C :    0.034223
   7 C :    0.112145
   8 H :   -0.026376
   9 H :   -0.041438
  10 H :   -0.027732
  11 H :   -0.022003
  12 H :   -0.025961
  13 H :   -0.025045
  14 H :   -0.025713
  15 H :   -0.025988
  16 H :   -0.045593
  17 H :   -0.031602
  18 H :   -0.031672
  19 H :   -0.039756
  20 H :   -0.029129
  21 H :   -0.028066
  22 H :   -0.027313

  Mayer bond orders larger than 0.1
B(  0-C ,  1-C ) :   0.9521 B(  0-C ,  5-C ) :   0.9625 B(  0-C , 14-H ) :   0.9811
B(  0-C , 15-H ) :   0.9928 B(  1-C ,  2-C ) :   0.9627 B(  1-C ,  7-C ) :   0.9570
B(  1-C , 11-H ) :   0.9749 B(  2-C ,  3-N ) :   0.9855 B(  2-C ,  8-H ) :   0.9894
B(  2-C , 19-H ) :   0.9701 B(  3-N ,  4-C ) :   0.9767 B(  3-N ,  6-C ) :   0.9909
B(  4-C ,  5-C ) :   0.9628 B(  4-C ,  9-H ) :   0.9735 B(  4-C , 10-H ) :   0.9911
B(  5-C , 12-H ) :   0.9934 B(  5-C , 13-H ) :   0.9813 B(  6-C , 16-H ) :   0.9648
B(  6-C , 17-H ) :   0.9855 B(  6-C , 18-H ) :   0.9854 B(  7-C , 20-H ) :   0.9787
B(  7-C , 21-H ) :   0.9872 B(  7-C , 22-H ) :   0.9863

E(0)                                       ...   -328.365034757
E(0)                                       ...   -328.365034757
E(CORR)(strong-pairs)                      ...     -1.501086651
E(CORR)(weak-pairs)                        ...     -0.001708761
E(CORR)(corrected)                         ...     -1.502795413
E(TOT)                                     ...   -329.867830169
E(CCSD(T))                                 ...   -329.928268451
FINAL SINGLE POINT ENERGY      -329.928268451143

DIPOLE MOMENT
-------------
                                X             Y             Z
Electronic contribution:     -1.24138       1.02010      -1.53897
Nuclear contribution   :      1.25703      -1.00201       1.72006
                        -----------------------------------------
Total Dipole Moment    :      0.01565       0.01809       0.18109
                        -----------------------------------------
Magnitude (a.u.)       :      0.18266
Magnitude (Debye)      :      0.46429

Rotational constants in cm-1:     0.101133     0.055274     0.038458
Rotational constants in MHz :  3031.879485  1657.079268  1152.953044

                             ****ORCA TERMINATED NORMALLY****
TOTAL RUN TIME: 0 days 0 hours 21 minutes 53 seconds 760 msec
