                         Program Version 4.1.x  -  STABLE  -
|  1> ! RHF DLPNO-CCSD(T) cc-pVTZ RIJK cc-pVTZ/JK cc-pVTZ/C
|  2> ! KDIIS SOSCF TightSCF TightPNO
|  3>
|  4> %pal nprocs 8 end
|  5>
|  6> %maxcore 8000
|  7>
|  8> %scf maxiter 300
|  9>      shift shift 0.2 erroff 0.1 end
| 10> end
| 11>
| 12> * xyzfile 0 1 N_4_dimethylpiperidine_eq_eq.xyz
| 13>
| 14>
| 15>                          ****END OF INPUT****

CARTESIAN COORDINATES (ANGSTROEM)
---------------------------------
  C     -1.459170    0.000010    0.325960
  C     -0.715430    1.252360   -0.166970
  C      0.771020    1.209470    0.198920
  N      1.411680   -0.000010   -0.318970
  C      0.770980   -1.209470    0.198930
  C     -0.715460   -1.252330   -0.166980
  C      2.846600   -0.000020   -0.075490
  C     -2.933090   -0.000000   -0.094410
  H      1.288300    2.078640   -0.223580
  H      0.881030   -1.273720    1.303470
  H      1.288250   -2.078660   -0.223540
  H     -0.810150    1.324450   -1.259040
  H     -1.168630   -2.156670    0.259280
  H     -0.810160   -1.324440   -1.259050
  H     -1.418430    0.000020    1.427140
  H      3.102330    0.000000    1.003430
  H      3.300070   -0.886360   -0.531040
  H      3.300090    0.886300   -0.531070
  H      0.881080    1.273750    1.303450
  H     -1.168570    2.156720    0.259280
  H     -3.029000   -0.000020   -1.187380
  H     -3.455330   -0.885710    0.285880
  H     -3.455340    0.885710    0.285850

 Total Charge           Charge          ....    0
 Multiplicity           Mult            ....    1
 Number of Electrons    NEL             ....   64
 Basis Dimension        Dim             ....  450

ORBITAL ENERGIES
----------------

  NO   OCC          E(Eh)            E(eV)
   0   2.0000     -15.539360      -422.8475
   1   2.0000     -11.242660      -305.9283
   2   2.0000     -11.242645      -305.9279
   3   2.0000     -11.238742      -305.8217
   4   2.0000     -11.223079      -305.3955
   5   2.0000     -11.213877      -305.1451
   6   2.0000     -11.213848      -305.1443
   7   2.0000     -11.210581      -305.0554
   8   2.0000      -1.224635       -33.3240
   9   2.0000      -1.083653       -29.4877
  10   2.0000      -1.008682       -27.4476
  11   2.0000      -0.966302       -26.2944
  12   2.0000      -0.893482       -24.3129
  13   2.0000      -0.845430       -23.0053
  14   2.0000      -0.803654       -21.8685
  15   2.0000      -0.747697       -20.3459
  16   2.0000      -0.646726       -17.5983
  17   2.0000      -0.620713       -16.8905
  18   2.0000      -0.620187       -16.8761
  19   2.0000      -0.608136       -16.5482
  20   2.0000      -0.591699       -16.1010
  21   2.0000      -0.558006       -15.1841
  22   2.0000      -0.541554       -14.7364
  23   2.0000      -0.529432       -14.4066
  24   2.0000      -0.522561       -14.2196
  25   2.0000      -0.512360       -13.9420
  26   2.0000      -0.486964       -13.2510
  27   2.0000      -0.483646       -13.1607
  28   2.0000      -0.453953       -12.3527
  29   2.0000      -0.435956       -11.8630
  30   2.0000      -0.432848       -11.7784
  31   2.0000      -0.348793        -9.4912
  32   0.0000       0.143951         3.9171
  33   0.0000       0.150893         4.1060
  34   0.0000       0.164463         4.4753
  35   0.0000       0.164588         4.4787
  36   0.0000       0.184279         5.0145

MULLIKEN ATOMIC CHARGES
-----------------------
   0 C :   -0.074976
   1 C :   -0.178207
   2 C :   -0.079164
   3 N :   -0.233106
   4 C :   -0.079164
   5 C :   -0.178201
   6 C :   -0.186341
   7 C :   -0.305068
   8 H :    0.096291
   9 H :    0.058307
  10 H :    0.096292
  11 H :    0.088529
  12 H :    0.100067
  13 H :    0.088533
  14 H :    0.098747
  15 H :    0.055621
  16 H :    0.093780
  17 H :    0.093778
  18 H :    0.058310
  19 H :    0.100069
  20 H :    0.089915
  21 H :    0.097993
  22 H :    0.097996
Sum of atomic charges:   -0.0000000

LOEWDIN ATOMIC CHARGES
----------------------
   0 C :   -0.024666
   1 C :    0.061176
   2 C :   -0.015631
   3 N :    0.240407
   4 C :   -0.015628
   5 C :    0.061168
   6 C :    0.033968
   7 C :    0.111552
   8 H :   -0.027397
   9 H :   -0.041220
  10 H :   -0.027398
  11 H :   -0.023628
  12 H :   -0.024893
  13 H :   -0.023625
  14 H :   -0.024163
  15 H :   -0.045707
  16 H :   -0.031616
  17 H :   -0.031613
  18 H :   -0.041223
  19 H :   -0.024896
  20 H :   -0.028224
  21 H :   -0.028370
  22 H :   -0.028374

  Mayer bond orders larger than 0.1
B(  0-C ,  1-C ) :   0.9540 B(  0-C ,  5-C ) :   0.9540 B(  0-C ,  7-C ) :   0.9626
B(  0-C , 14-H ) :   0.9777 B(  1-C ,  2-C ) :   0.9761 B(  1-C , 11-H ) :   0.9761
B(  1-C , 19-H ) :   0.9918 B(  2-C ,  3-N ) :   0.9772 B(  2-C ,  8-H ) :   0.9905
B(  2-C , 18-H ) :   0.9744 B(  3-N ,  4-C ) :   0.9772 B(  3-N ,  6-C ) :   0.9899
B(  4-C ,  5-C ) :   0.9761 B(  4-C ,  9-H ) :   0.9744 B(  4-C , 10-H ) :   0.9905
B(  5-C , 12-H ) :   0.9918 B(  5-C , 13-H ) :   0.9761 B(  6-C , 15-H ) :   0.9658
B(  6-C , 16-H ) :   0.9853 B(  6-C , 17-H ) :   0.9853 B(  7-C , 20-H ) :   0.9808
B(  7-C , 21-H ) :   0.9865 B(  7-C , 22-H ) :   0.9865

E(0)                                       ...   -328.365275287
E(0)                                       ...   -328.365275287
E(CORR)(strong-pairs)                      ...     -1.501009183
E(CORR)(weak-pairs)                        ...     -0.001657945
E(CORR)(corrected)                         ...     -1.502667128
E(TOT)                                     ...   -329.867942415
E(CCSD(T))                                 ...   -329.928369101
FINAL SINGLE POINT ENERGY      -329.928369101408

DIPOLE MOMENT
-------------
                                X             Y             Z
Electronic contribution:      1.35010      -0.00000      -0.73046
Nuclear contribution   :     -1.34439      -0.00000       0.96748
                        -----------------------------------------
Total Dipole Moment    :      0.00571      -0.00000       0.23702
                        -----------------------------------------
Magnitude (a.u.)       :      0.23709
Magnitude (Debye)      :      0.60264

Rotational constants in cm-1:     0.143556     0.045163     0.036840
Rotational constants in MHz :  4303.709413  1353.940125  1104.443183

                             ****ORCA TERMINATED NORMALLY****
TOTAL RUN TIME: 0 days 0 hours 22 minutes 22 seconds 498 msec
