                         Program Version 4.1.x  -  STABLE  -
|  1> ! RHF DLPNO-CCSD(T) cc-pVTZ RIJK cc-pVTZ/JK cc-pVTZ/C
|  2> ! KDIIS SOSCF TightSCF TightPNO
|  3>
|  4> %pal nprocs 8 end
|  5>
|  6> %maxcore 8000
|  7>
|  8> %scf maxiter 300
|  9>      shift shift 0.2 erroff 0.1 end
| 10> end
| 11>
| 12> * xyzfile 0 1 N_4_dimethylpiperidine_eq_ax.xyz
| 13>
| 14>
| 15>                          ****END OF INPUT****

CARTESIAN COORDINATES (ANGSTROEM)
---------------------------------
  C     -1.600730    0.000010   -0.379420
  C     -0.739760    1.255440   -0.637680
  C      0.605370    1.209240    0.095500
  N      1.354350    0.000000   -0.251670
  C      0.605350   -1.209230    0.095460
  C     -0.739780   -1.255380   -0.637720
  C      2.683380   -0.000030    0.341730
  C     -2.247010   -0.000040    1.016860
  H      1.209460    2.078660   -0.188920
  H      0.448780   -1.277030    1.192600
  H      1.209430   -2.078660   -0.188970
  H     -0.538260    1.336400   -1.713160
  H     -1.285640   -2.159980   -0.340500
  H     -0.538270   -1.336310   -1.713200
  H     -2.419510    0.000040   -1.112040
  H      2.661410   -0.000040    1.450460
  H      3.236100   -0.886540    0.013890
  H      3.236150    0.886470    0.013920
  H      0.448810    1.277010    1.192650
  H     -1.285610    2.160030   -0.340420
  H     -1.505760   -0.000060    1.822560
  H     -2.879220    0.885270    1.152250
  H     -2.879220   -0.885350    1.152190

 Total Charge           Charge          ....    0
 Multiplicity           Mult            ....    1
 Number of Electrons    NEL             ....   64
 Basis Dimension        Dim             ....  450

ORBITAL ENERGIES
----------------

  NO   OCC          E(Eh)            E(eV)
   0   2.0000     -15.538823      -422.8329
   1   2.0000     -11.241910      -305.9079
   2   2.0000     -11.241896      -305.9075
   3   2.0000     -11.238366      -305.8115
   4   2.0000     -11.223957      -305.4194
   5   2.0000     -11.214033      -305.1494
   6   2.0000     -11.214007      -305.1486
   7   2.0000     -11.210212      -305.0454
   8   2.0000      -1.223965       -33.3058
   9   2.0000      -1.081174       -29.4202
  10   2.0000      -1.008107       -27.4320
  11   2.0000      -0.961258       -26.1572
  12   2.0000      -0.899518       -24.4771
  13   2.0000      -0.844126       -22.9698
  14   2.0000      -0.813842       -22.1458
  15   2.0000      -0.723993       -19.7009
  16   2.0000      -0.658586       -17.9210
  17   2.0000      -0.622020       -16.9260
  18   2.0000      -0.621179       -16.9032
  19   2.0000      -0.600209       -16.3325
  20   2.0000      -0.595463       -16.2034
  21   2.0000      -0.563965       -15.3463
  22   2.0000      -0.536323       -14.5941
  23   2.0000      -0.531138       -14.4530
  24   2.0000      -0.525163       -14.2904
  25   2.0000      -0.505854       -13.7650
  26   2.0000      -0.491949       -13.3866
  27   2.0000      -0.481233       -13.0950
  28   2.0000      -0.451415       -12.2836
  29   2.0000      -0.434434       -11.8216
  30   2.0000      -0.432059       -11.7569
  31   2.0000      -0.347949        -9.4682
  32   0.0000       0.136378         3.7110
  33   0.0000       0.153582         4.1792
  34   0.0000       0.165416         4.5012
  35   0.0000       0.168194         4.5768
  36   0.0000       0.192441         5.2366

MULLIKEN ATOMIC CHARGES
-----------------------
   0 C :   -0.089087
   1 C :   -0.186246
   2 C :   -0.088766
   3 N :   -0.234758
   4 C :   -0.088769
   5 C :   -0.186238
   6 C :   -0.184231
   7 C :   -0.310654
   8 H :    0.101405
   9 H :    0.063504
  10 H :    0.101402
  11 H :    0.099467
  12 H :    0.097880
  13 H :    0.099465
  14 H :    0.109316
  15 H :    0.054824
  16 H :    0.093249
  17 H :    0.093246
  18 H :    0.063503
  19 H :    0.097884
  20 H :    0.093243
  21 H :    0.100178
  22 H :    0.100182
Sum of atomic charges:    0.0000000

LOEWDIN ATOMIC CHARGES
----------------------
   0 C :   -0.016153
   1 C :    0.063092
   2 C :   -0.016282
   3 N :    0.240434
   4 C :   -0.016285
   5 C :    0.063079
   6 C :    0.033504
   7 C :    0.110429
   8 H :   -0.027242
   9 H :   -0.042538
  10 H :   -0.027239
  11 H :   -0.022886
  12 H :   -0.025595
  13 H :   -0.022884
  14 H :   -0.023252
  15 H :   -0.046087
  16 H :   -0.031682
  17 H :   -0.031678
  18 H :   -0.042535
  19 H :   -0.025599
  20 H :   -0.035142
  21 H :   -0.028728
  22 H :   -0.028731

  Mayer bond orders larger than 0.1
B(  0-C ,  1-C ) :   0.9516 B(  0-C ,  5-C ) :   0.9516 B(  0-C ,  7-C ) :   0.9475
B(  0-C , 14-H ) :   0.9957 B(  1-C ,  2-C ) :   0.9633 B(  1-C , 11-H ) :   0.9867
B(  1-C , 19-H ) :   0.9935 B(  2-C ,  3-N ) :   0.9746 B(  2-C ,  8-H ) :   0.9895
B(  2-C , 18-H ) :   0.9731 B(  3-N ,  4-C ) :   0.9746 B(  3-N ,  6-C ) :   0.9904
B(  4-C ,  5-C ) :   0.9633 B(  4-C ,  9-H ) :   0.9731 B(  4-C , 10-H ) :   0.9895
B(  5-C , 12-H ) :   0.9935 B(  5-C , 13-H ) :   0.9867 B(  6-C , 15-H ) :   0.9655
B(  6-C , 16-H ) :   0.9852 B(  6-C , 17-H ) :   0.9852 B(  7-C , 20-H ) :   0.9783
B(  7-C , 21-H ) :   0.9862 B(  7-C , 22-H ) :   0.9862

E(0)                                       ...   -328.361133877
E(0)                                       ...   -328.361133877
E(CORR)(strong-pairs)                      ...     -1.502050062
E(CORR)(weak-pairs)                        ...     -0.001674473
E(CORR)(corrected)                         ...     -1.503724535
E(TOT)                                     ...   -329.864858412
E(CCSD(T))                                 ...   -329.925413438
FINAL SINGLE POINT ENERGY      -329.925413438097

DIPOLE MOMENT
-------------
                                X             Y             Z
Electronic contribution:      0.85078       0.00009      -2.35703
Nuclear contribution   :     -0.92736      -0.00009       2.53958
                        -----------------------------------------
Total Dipole Moment    :     -0.07657       0.00000       0.18255
                        -----------------------------------------
Magnitude (a.u.)       :      0.19796
Magnitude (Debye)      :      0.50317

Rotational constants in cm-1:     0.115453     0.050957     0.043546
Rotational constants in MHz :  3461.208328  1527.647131  1305.485233

                             ****ORCA TERMINATED NORMALLY****
TOTAL RUN TIME: 0 days 0 hours 22 minutes 2 seconds 371 msec
