                         Program Version 4.1.x  -  STABLE  -
|  1> ! RHF DLPNO-CCSD(T) cc-pVTZ RIJK cc-pVTZ/JK cc-pVTZ/C
|  2> ! KDIIS SOSCF TightSCF TightPNO
|  3>
|  4> %pal nprocs 8 end
|  5>
|  6> %maxcore 8000
|  7>
|  8> %scf maxiter 300
|  9>      shift shift 0.2 erroff 0.1 end
| 10> end
| 11>
| 12> * xyzfile 0 1 N_Ac_Ala_N_Me_g_g_plus.xyz
| 13>
| 14>
| 15>                          ****END OF INPUT****

CARTESIAN COORDINATES (ANGSTROEM)
---------------------------------
  C     -3.163530   -0.750980   -0.617650
  C     -1.829020   -0.367280   -0.004690
  N     -1.141830    0.623430   -0.635310
  C      0.119470    1.250740   -0.192860
  C      0.021620    1.848320    1.220470
  O     -1.409450   -0.935830    1.010160
  C      1.373980    0.358150   -0.357580
  N      1.339900   -0.858470    0.230560
  C      2.479020   -1.761690    0.165750
  O      2.352340    0.790430   -0.970530
  H     -3.394890   -0.219400   -1.544730
  H     -3.951400   -0.547340    0.113590
  H     -3.164380   -1.827170   -0.809670
  H      0.294410    2.063520   -0.900380
  H     -1.535600    0.981180   -1.492910
  H      0.493070   -1.128470    0.726500
  H      2.206050   -2.700790    0.650680
  H      3.350970   -1.334820    0.672700
  H      2.759670   -1.959890   -0.873410
  H     -0.786780    2.585430    1.259520
  H     -0.171140    1.079180    1.970160
  H      0.961230    2.353510    1.463580

 Total Charge           Charge          ....    0
 Multiplicity           Mult            ....    1
 Number of Electrons    NEL             ....   78
 Basis Dimension        Dim             ....  468

ORBITAL ENERGIES
----------------

  NO   OCC          E(Eh)            E(eV)
   0   2.0000     -20.530835      -558.6724
   1   2.0000     -20.505763      -557.9902
   2   2.0000     -15.605733      -424.6536
   3   2.0000     -15.566316      -423.5810
   4   2.0000     -11.371814      -309.4428
   5   2.0000     -11.338073      -308.5247
   6   2.0000     -11.292353      -307.2806
   7   2.0000     -11.252854      -306.2057
   8   2.0000     -11.250713      -306.1475
   9   2.0000     -11.227801      -305.5240
  10   2.0000      -1.391343       -37.8604
  11   2.0000      -1.362556       -37.0770
  12   2.0000      -1.247378       -33.9429
  13   2.0000      -1.211978       -32.9796
  14   2.0000      -1.058088       -28.7920
  15   2.0000      -1.000808       -27.2334
  16   2.0000      -0.945338       -25.7240
  17   2.0000      -0.885985       -24.1089
  18   2.0000      -0.806622       -21.9493
  19   2.0000      -0.765079       -20.8189
  20   2.0000      -0.720273       -19.5996
  21   2.0000      -0.704367       -19.1668
  22   2.0000      -0.650684       -17.7060
  23   2.0000      -0.630739       -17.1633
  24   2.0000      -0.621517       -16.9123
  25   2.0000      -0.611166       -16.6307
  26   2.0000      -0.599776       -16.3207
  27   2.0000      -0.586183       -15.9508
  28   2.0000      -0.577077       -15.7031
  29   2.0000      -0.565765       -15.3953
  30   2.0000      -0.545470       -14.8430
  31   2.0000      -0.539769       -14.6879
  32   2.0000      -0.523533       -14.2461
  33   2.0000      -0.516332       -14.0501
  34   2.0000      -0.497973       -13.5505
  35   2.0000      -0.442395       -12.0382
  36   2.0000      -0.433588       -11.7985
  37   2.0000      -0.392259       -10.6739
  38   2.0000      -0.377572       -10.2743
  39   0.0000       0.115133         3.1329
  40   0.0000       0.149208         4.0602
  41   0.0000       0.152354         4.1458
  42   0.0000       0.155814         4.2399
  43   0.0000       0.172285         4.6881

MULLIKEN ATOMIC CHARGES
-----------------------
   0 C :   -0.263107
   1 C :    0.333760
   2 N :   -0.252068
   3 C :   -0.006001
   4 C :   -0.294659
   5 O :   -0.495795
   6 C :    0.326990
   7 N :   -0.254441
   8 C :   -0.150213
   9 O :   -0.468432
  10 H :    0.088742
  11 H :    0.120915
  12 H :    0.121713
  13 H :    0.142082
  14 H :    0.193767
  15 H :    0.236444
  16 H :    0.093021
  17 H :    0.092842
  18 H :    0.096350
  19 H :    0.097953
  20 H :    0.125437
  21 H :    0.114700
Sum of atomic charges:   -0.0000000

LOEWDIN ATOMIC CHARGES
----------------------
   0 C :    0.121946
   1 C :   -0.360262
   2 N :    0.387535
   3 C :   -0.052729
   4 C :    0.120717
   5 O :    0.063822
   6 C :   -0.376094
   7 N :    0.375865
   8 C :    0.075794
   9 O :    0.045582
  10 H :   -0.027656
  11 H :   -0.009039
  12 H :   -0.009706
  13 H :   -0.009528
  14 H :   -0.076510
  15 H :   -0.111128
  16 H :   -0.029488
  17 H :   -0.029413
  18 H :   -0.028516
  19 H :   -0.026762
  20 H :   -0.026485
  21 H :   -0.017946

  Mayer bond orders larger than 0.1
B(  0-C ,  1-C ) :   0.9416 B(  0-C , 10-H ) :   0.9892 B(  0-C , 11-H ) :   0.9662
B(  0-C , 12-H ) :   0.9682 B(  1-C ,  2-N ) :   1.2470 B(  1-C ,  5-O ) :   1.8621
B(  2-N ,  3-C ) :   0.9111 B(  2-N , 14-H ) :   0.9627 B(  3-C ,  4-C ) :   0.9532
B(  3-C ,  6-C ) :   0.9354 B(  3-C , 13-H ) :   0.9918 B(  4-C , 19-H ) :   0.9771
B(  4-C , 20-H ) :   0.9663 B(  4-C , 21-H ) :   0.9748 B(  6-C ,  7-N ) :   1.2845
B(  6-C ,  9-O ) :   1.9679 B(  7-N ,  8-C ) :   0.9526 B(  7-N , 15-H ) :   0.9120
B(  8-C , 16-H ) :   0.9845 B(  8-C , 17-H ) :   0.9703 B(  8-C , 18-H ) :   0.9708

E(0)                                       ...   -493.033307447
E(0)                                       ...   -493.033307447
E(CORR)(strong-pairs)                      ...     -1.935288181
E(CORR)(weak-pairs)                        ...     -0.002226753
E(CORR)(corrected)                         ...     -1.937514933
E(TOT)                                     ...   -494.970822380
E(CCSD(T))                                 ...   -495.052420372
FINAL SINGLE POINT ENERGY      -495.052420372066

DIPOLE MOMENT
-------------
                                X             Y             Z
Electronic contribution:      1.31997       0.70984      -1.62265
Nuclear contribution   :     -2.96972      -0.66932       1.25369
                        -----------------------------------------
Total Dipole Moment    :     -1.64975       0.04052      -0.36896
                        -----------------------------------------
Magnitude (a.u.)       :      1.69099
Magnitude (Debye)      :      4.29816

Rotational constants in cm-1:     0.064438     0.029841     0.025142
Rotational constants in MHz :  1931.793330   894.612519   753.742443

                             ****ORCA TERMINATED NORMALLY****
TOTAL RUN TIME: 0 days 0 hours 29 minutes 31 seconds 127 msec
