                         Program Version 4.1.x  -  STABLE  -
|  1> ! RHF DLPNO-CCSD(T) cc-pVTZ RIJK cc-pVTZ/JK cc-pVTZ/C
|  2> ! KDIIS SOSCF TightSCF TightPNO
|  3>
|  4> %pal nprocs 8 end
|  5>
|  6> %maxcore 8000
|  7>
|  8> %scf maxiter 300
|  9>      shift shift 0.2 erroff 0.1 end
| 10> end
| 11>
| 12> * xyzfile 0 1 N_Ac_Gly_N_methylamide_aa.xyz
| 13>
| 14>
| 15>                          ****END OF INPUT****

CARTESIAN COORDINATES (ANGSTROEM)
---------------------------------
  C     -3.401360    0.925260    0.000530
  C     -2.348050   -0.171200    0.000090
  N     -1.056000    0.260450   -0.000870
  C      0.053200   -0.662490   -0.000940
  C      1.359610    0.134430   -0.000230
  N      2.494640   -0.608760    0.000170
  C      3.815880    0.008090    0.000670
  O     -2.630280   -1.369520    0.000550
  O      1.372310    1.365380   -0.000160
  H     -3.302220    1.563000    0.885720
  H     -3.303220    1.562750   -0.884950
  H     -4.387610    0.461220    0.001170
  H      0.012860   -1.319250    0.878540
  H      0.013530   -1.318460   -0.881040
  H     -0.808960    1.243700   -0.000790
  H      2.422200   -1.615510    0.000090
  H      4.569260   -0.781320    0.000170
  H      3.950930    0.635880   -0.885020
  H      3.950890    0.634700    0.887210

 Total Charge           Charge          ....    0
 Multiplicity           Mult            ....    1
 Number of Electrons    NEL             ....   70
 Basis Dimension        Dim             ....  410

ORBITAL ENERGIES
----------------

  NO   OCC          E(Eh)            E(eV)
   0   2.0000     -20.531438      -558.6888
   1   2.0000     -20.510592      -558.1216
   2   2.0000     -15.598329      -424.4521
   3   2.0000     -15.578464      -423.9115
   4   2.0000     -11.363967      -309.2293
   5   2.0000     -11.346789      -308.7618
   6   2.0000     -11.285021      -307.0810
   7   2.0000     -11.272688      -306.7454
   8   2.0000     -11.234200      -305.6981
   9   2.0000      -1.391738       -37.8711
  10   2.0000      -1.368146       -37.2291
  11   2.0000      -1.240765       -33.7629
  12   2.0000      -1.226762       -33.3819
  13   2.0000      -1.030241       -28.0343
  14   2.0000      -0.984012       -26.7763
  15   2.0000      -0.927447       -25.2371
  16   2.0000      -0.804125       -21.8814
  17   2.0000      -0.789577       -21.4855
  18   2.0000      -0.723836       -19.6966
  19   2.0000      -0.667448       -18.1622
  20   2.0000      -0.661945       -18.0124
  21   2.0000      -0.657727       -17.8977
  22   2.0000      -0.631580       -17.1862
  23   2.0000      -0.622478       -16.9385
  24   2.0000      -0.590482       -16.0678
  25   2.0000      -0.584674       -15.9098
  26   2.0000      -0.565418       -15.3858
  27   2.0000      -0.561615       -15.2823
  28   2.0000      -0.550129       -14.9698
  29   2.0000      -0.529611       -14.4114
  30   2.0000      -0.497606       -13.5405
  31   2.0000      -0.442221       -12.0335
  32   2.0000      -0.419110       -11.4046
  33   2.0000      -0.411171       -11.1885
  34   2.0000      -0.387356       -10.5405
  35   0.0000       0.120437         3.2773
  36   0.0000       0.142759         3.8847
  37   0.0000       0.154244         4.1972
  38   0.0000       0.166125         4.5205
  39   0.0000       0.177856         4.8397

MULLIKEN ATOMIC CHARGES
-----------------------
   0 C :   -0.297032
   1 C :    0.331544
   2 N :   -0.245414
   3 C :   -0.054827
   4 C :    0.325941
   5 N :   -0.231325
   6 C :   -0.145004
   7 O :   -0.462332
   8 O :   -0.470529
   9 H :    0.104532
  10 H :    0.104540
  11 H :    0.130668
  12 H :    0.110461
  13 H :    0.110418
  14 H :    0.203742
  15 H :    0.183744
  16 H :    0.093717
  17 H :    0.103603
  18 H :    0.103554
Sum of atomic charges:    0.0000000

LOEWDIN ATOMIC CHARGES
----------------------
   0 C :    0.115513
   1 C :   -0.374700
   2 N :    0.376794
   3 C :    0.010335
   4 C :   -0.365008
   5 N :    0.371305
   6 C :    0.083307
   7 O :    0.047584
   8 O :    0.058873
   9 H :   -0.019338
  10 H :   -0.019338
  11 H :   -0.013545
  12 H :   -0.015926
  13 H :   -0.015937
  14 H :   -0.081264
  15 H :   -0.078934
  16 H :   -0.028550
  17 H :   -0.025576
  18 H :   -0.025593

  Mayer bond orders larger than 0.1
B(  0-C ,  1-C ) :   0.9422 B(  0-C ,  9-H ) :   0.9686 B(  0-C , 10-H ) :   0.9687
B(  0-C , 11-H ) :   0.9812 B(  1-C ,  2-N ) :   1.2254 B(  1-C ,  7-O ) :   1.9667
B(  2-N ,  3-C ) :   0.9722 B(  2-N , 14-H ) :   0.9370 B(  3-C ,  4-C ) :   0.9318
B(  3-C , 12-H ) :   0.9676 B(  3-C , 13-H ) :   0.9676 B(  4-C ,  5-N ) :   1.2817
B(  4-C ,  8-O ) :   1.9203 B(  5-N ,  6-C ) :   0.9347 B(  5-N , 15-H ) :   0.9722
B(  6-C , 16-H ) :   0.9841 B(  6-C , 17-H ) :   0.9701 B(  6-C , 18-H ) :   0.9701

E(0)                                       ...   -453.989064307
E(0)                                       ...   -453.989064307
E(CORR)(strong-pairs)                      ...     -1.745381906
E(CORR)(weak-pairs)                        ...     -0.001972720
E(CORR)(corrected)                         ...     -1.747354626
E(TOT)                                     ...   -455.736418933
E(CCSD(T))                                 ...   -455.809281267
FINAL SINGLE POINT ENERGY      -455.809281267347

DIPOLE MOMENT
-------------
                                X             Y             Z
Electronic contribution:     -1.96266      -1.13427      -0.00141
Nuclear contribution   :      3.13772       1.07539       0.00111
                        -----------------------------------------
Total Dipole Moment    :      1.17506      -0.05889      -0.00030
                        -----------------------------------------
Magnitude (a.u.)       :      1.17654
Magnitude (Debye)      :      2.99052

Rotational constants in cm-1:     0.167402     0.022434     0.020005
Rotational constants in MHz :  5018.596998   672.562646   599.730425

                             ****ORCA TERMINATED NORMALLY****
TOTAL RUN TIME: 0 days 0 hours 14 minutes 59 seconds 437 msec
