                         Program Version 4.1.x  -  STABLE  -
|  1> ! RHF DLPNO-CCSD(T) cc-pVTZ RIJK cc-pVTZ/JK cc-pVTZ/C
|  2> ! KDIIS SOSCF TightSCF TightPNO
|  3>
|  4> %pal nprocs 8 end
|  5>
|  6> %maxcore 8000
|  7>
|  8> %scf maxiter 300
|  9>      shift shift 0.2 erroff 0.1 end
| 10> end
| 11>
| 12> * xyzfile 0 1 N_Ac_Ala_N_Me_g_plus_g_.xyz
| 13>
| 14>
| 15>                          ****END OF INPUT****

CARTESIAN COORDINATES (ANGSTROEM)
---------------------------------
  C     -3.119640   -0.623060    0.745660
  C     -1.857220   -0.405970   -0.065650
  N     -1.106110    0.682020    0.258150
  C      0.117290    1.056440   -0.463750
  C      0.352900    2.559100   -0.357290
  O     -1.534790   -1.176290   -0.977130
  C      1.328210    0.251270    0.076210
  N      1.359210   -1.042410   -0.331910
  C      2.367050   -1.973760    0.151900
  O      2.177020    0.759040    0.808060
  H     -3.975600   -0.617050    0.064840
  H     -3.276930    0.129820    1.522850
  H     -3.075050   -1.612900    1.208280
  H     -0.047910    0.770880   -1.507740
  H     -1.365130    1.238680    1.060730
  H      0.539020   -1.396620   -0.817380
  H      2.152690   -2.316590    1.171990
  H      3.342630   -1.483400    0.158070
  H      2.399980   -2.838130   -0.514760
  H      0.534550    2.854430    0.680330
  H     -0.509070    3.106070   -0.751330
  H      1.239790    2.841480   -0.929400

 Total Charge           Charge          ....    0
 Multiplicity           Mult            ....    1
 Number of Electrons    NEL             ....   78
 Basis Dimension        Dim             ....  468

ORBITAL ENERGIES
----------------

  NO   OCC          E(Eh)            E(eV)
   0   2.0000     -20.527870      -558.5917
   1   2.0000     -20.510330      -558.1144
   2   2.0000     -15.602771      -424.5730
   3   2.0000     -15.570309      -423.6897
   4   2.0000     -11.367995      -309.3389
   5   2.0000     -11.340323      -308.5859
   6   2.0000     -11.288665      -307.1802
   7   2.0000     -11.252442      -306.1945
   8   2.0000     -11.250846      -306.1511
   9   2.0000     -11.228366      -305.5394
  10   2.0000      -1.388395       -37.7801
  11   2.0000      -1.366659       -37.1887
  12   2.0000      -1.246327       -33.9143
  13   2.0000      -1.215083       -33.0641
  14   2.0000      -1.057495       -28.7759
  15   2.0000      -0.998912       -27.1818
  16   2.0000      -0.953432       -25.9442
  17   2.0000      -0.870190       -23.6791
  18   2.0000      -0.809993       -22.0410
  19   2.0000      -0.773147       -21.0384
  20   2.0000      -0.719777       -19.5861
  21   2.0000      -0.687620       -18.7111
  22   2.0000      -0.670981       -18.2583
  23   2.0000      -0.636108       -17.3094
  24   2.0000      -0.619498       -16.8574
  25   2.0000      -0.609704       -16.5909
  26   2.0000      -0.598220       -16.2784
  27   2.0000      -0.590153       -16.0589
  28   2.0000      -0.579464       -15.7680
  29   2.0000      -0.549887       -14.9632
  30   2.0000      -0.542805       -14.7705
  31   2.0000      -0.533615       -14.5204
  32   2.0000      -0.524489       -14.2721
  33   2.0000      -0.516705       -14.0603
  34   2.0000      -0.509084       -13.8529
  35   2.0000      -0.443798       -12.0764
  36   2.0000      -0.434978       -11.8364
  37   2.0000      -0.392269       -10.6742
  38   2.0000      -0.380782       -10.3616
  39   0.0000       0.121206         3.2982
  40   0.0000       0.150817         4.1039
  41   0.0000       0.155358         4.2275
  42   0.0000       0.160547         4.3687
  43   0.0000       0.168844         4.5945

MULLIKEN ATOMIC CHARGES
-----------------------
   0 C :   -0.268119
   1 C :    0.335937
   2 N :   -0.253771
   3 C :    0.005666
   4 C :   -0.290162
   5 O :   -0.494257
   6 C :    0.324395
   7 N :   -0.245192
   8 C :   -0.157313
   9 O :   -0.463536
  10 H :    0.121803
  11 H :    0.090580
  12 H :    0.119242
  13 H :    0.146983
  14 H :    0.191372
  15 H :    0.222531
  16 H :    0.080335
  17 H :    0.114641
  18 H :    0.095882
  19 H :    0.108825
  20 H :    0.103061
  21 H :    0.111096
Sum of atomic charges:   -0.0000000

LOEWDIN ATOMIC CHARGES
----------------------
   0 C :    0.120775
   1 C :   -0.362943
   2 N :    0.389692
   3 C :   -0.060705
   4 C :    0.117743
   5 O :    0.048848
   6 C :   -0.371777
   7 N :    0.371674
   8 C :    0.076124
   9 O :    0.052385
  10 H :   -0.008973
  11 H :   -0.027097
  12 H :   -0.010101
  13 H :   -0.014389
  14 H :   -0.075420
  15 H :   -0.092601
  16 H :   -0.034497
  17 H :   -0.023420
  18 H :   -0.030006
  19 H :   -0.022526
  20 H :   -0.027946
  21 H :   -0.014840

  Mayer bond orders larger than 0.1
B(  0-C ,  1-C ) :   0.9404 B(  0-C , 10-H ) :   0.9673 B(  0-C , 11-H ) :   0.9878
B(  0-C , 12-H ) :   0.9676 B(  1-C ,  2-N ) :   1.2406 B(  1-C ,  5-O ) :   1.8853
B(  2-N ,  3-C ) :   0.9095 B(  2-N , 14-H ) :   0.9579 B(  3-C ,  4-C ) :   0.9726
B(  3-C ,  6-C ) :   0.9124 B(  3-C , 13-H ) :   0.9692 B(  4-C , 19-H ) :   0.9682
B(  4-C , 20-H ) :   0.9853 B(  4-C , 21-H ) :   0.9766 B(  6-C ,  7-N ) :   1.2983
B(  6-C ,  9-O ) :   1.9785 B(  7-N ,  8-C ) :   0.9493 B(  7-N , 15-H ) :   0.9260
B(  8-C , 16-H ) :   0.9716 B(  8-C , 17-H ) :   0.9711 B(  8-C , 18-H ) :   0.9843

E(0)                                       ...   -493.038004864
E(0)                                       ...   -493.038004864
E(CORR)(strong-pairs)                      ...     -1.934605318
E(CORR)(weak-pairs)                        ...     -0.002327680
E(CORR)(corrected)                         ...     -1.936932998
E(TOT)                                     ...   -494.974937861
E(CCSD(T))                                 ...   -495.056415072
FINAL SINGLE POINT ENERGY      -495.056415071634

DIPOLE MOMENT
-------------
                                X             Y             Z
Electronic contribution:      0.79107      -0.49291      -1.06379
Nuclear contribution   :     -2.06202       0.67870       1.36495
                        -----------------------------------------
Total Dipole Moment    :     -1.27095       0.18578       0.30116
                        -----------------------------------------
Magnitude (a.u.)       :      1.31929
Magnitude (Debye)      :      3.35337

Rotational constants in cm-1:     0.056452     0.032520     0.023548
Rotational constants in MHz :  1692.393659   974.917527   705.943756

                             ****ORCA TERMINATED NORMALLY****
TOTAL RUN TIME: 0 days 0 hours 28 minutes 4 seconds 780 msec
