                         Program Version 4.1.x  -  STABLE  -
|  1> ! RHF DLPNO-CCSD(T) cc-pVTZ RIJK cc-pVTZ/JK cc-pVTZ/C
|  2> ! KDIIS SOSCF TightSCF TightPNO
|  3>
|  4> %pal nprocs 8 end
|  5>
|  6> %maxcore 8000
|  7>
|  8> %scf maxiter 300
|  9>      shift shift 0.2 erroff 0.1 end
| 10> end
| 11>
| 12> * xyzfile 0 1 N_Ac_Gly_N_methylamide_g_g_plus.xyz
| 13>
| 14>
| 15>                          ****END OF INPUT****

CARTESIAN COORDINATES (ANGSTROEM)
---------------------------------
  C      3.103140    0.343070    0.735370
  C      1.829750    0.192010   -0.072760
  N      1.130210   -0.962890    0.102440
  C     -0.085430   -1.269240   -0.648910
  C     -1.355330   -0.620000   -0.066000
  N     -1.417240    0.727330   -0.200410
  C     -2.525400    1.500270    0.339840
  O      1.450050    1.069220   -0.855540
  O     -2.235300   -1.299180    0.462790
  H      3.306470   -0.503650    1.396610
  H      3.941320    0.463500    0.043080
  H      3.035990    1.257120    1.331680
  H      0.063610   -0.941480   -1.682550
  H     -0.240760   -2.348040   -0.631780
  H      1.430920   -1.618050    0.808690
  H     -0.604230    1.199220   -0.586650
  H     -2.483410    2.510150   -0.072810
  H     -3.474230    1.034830    0.062080
  H     -2.484830    1.558330    1.434210

 Total Charge           Charge          ....    0
 Multiplicity           Mult            ....    1
 Number of Electrons    NEL             ....   70
 Basis Dimension        Dim             ....  410

ORBITAL ENERGIES
----------------

  NO   OCC          E(Eh)            E(eV)
   0   2.0000     -20.530932      -558.6751
   1   2.0000     -20.510213      -558.1113
   2   2.0000     -15.607467      -424.7008
   3   2.0000     -15.570941      -423.7069
   4   2.0000     -11.370633      -309.4106
   5   2.0000     -11.341683      -308.6229
   6   2.0000     -11.284413      -307.0645
   7   2.0000     -11.253341      -306.2190
   8   2.0000     -11.253140      -306.2135
   9   2.0000      -1.391660       -37.8690
  10   2.0000      -1.366023       -37.1714
  11   2.0000      -1.247106       -33.9355
  12   2.0000      -1.215685       -33.0805
  13   2.0000      -1.038542       -28.2602
  14   2.0000      -0.981176       -26.6991
  15   2.0000      -0.925172       -25.1752
  16   2.0000      -0.811529       -22.0828
  17   2.0000      -0.775114       -21.0919
  18   2.0000      -0.718809       -19.5598
  19   2.0000      -0.699907       -19.0454
  20   2.0000      -0.670832       -18.2543
  21   2.0000      -0.637835       -17.3564
  22   2.0000      -0.621977       -16.9248
  23   2.0000      -0.610636       -16.6162
  24   2.0000      -0.595023       -16.1914
  25   2.0000      -0.583358       -15.8740
  26   2.0000      -0.569317       -15.4919
  27   2.0000      -0.558680       -15.2024
  28   2.0000      -0.540472       -14.7070
  29   2.0000      -0.529127       -14.3983
  30   2.0000      -0.510432       -13.8896
  31   2.0000      -0.447055       -12.1650
  32   2.0000      -0.437902       -11.9159
  33   2.0000      -0.394913       -10.7461
  34   2.0000      -0.381323       -10.3763
  35   0.0000       0.117358         3.1935
  36   0.0000       0.150734         4.1017
  37   0.0000       0.154709         4.2098
  38   0.0000       0.162335         4.4173
  39   0.0000       0.177785         4.8378

MULLIKEN ATOMIC CHARGES
-----------------------
   0 C :   -0.265200
   1 C :    0.335463
   2 N :   -0.247838
   3 C :   -0.102988
   4 C :    0.321673
   5 N :   -0.246057
   6 C :   -0.151950
   7 O :   -0.491740
   8 O :   -0.459763
   9 H :    0.090558
  10 H :    0.122262
  11 H :    0.119870
  12 H :    0.129003
  13 H :    0.139887
  14 H :    0.194646
  15 H :    0.225202
  16 H :    0.094806
  17 H :    0.109176
  18 H :    0.082989
Sum of atomic charges:    0.0000000

LOEWDIN ATOMIC CHARGES
----------------------
   0 C :    0.121312
   1 C :   -0.363712
   2 N :    0.383644
   3 C :    0.026825
   4 C :   -0.382815
   5 N :    0.371577
   6 C :    0.076420
   7 O :    0.052037
   8 O :    0.048268
   9 H :   -0.026856
  10 H :   -0.008410
  11 H :   -0.009719
  12 H :   -0.015914
  13 H :   -0.014391
  14 H :   -0.076584
  15 H :   -0.094712
  16 H :   -0.029474
  17 H :   -0.024520
  18 H :   -0.032974

  Mayer bond orders larger than 0.1
B(  0-C ,  1-C ) :   0.9393 B(  0-C ,  9-H ) :   0.9877 B(  0-C , 10-H ) :   0.9667
B(  0-C , 11-H ) :   0.9673 B(  1-C ,  2-N ) :   1.2378 B(  1-C ,  7-O ) :   1.8905
B(  2-N ,  3-C ) :   0.9294 B(  2-N , 14-H ) :   0.9618 B(  3-C ,  4-C ) :   0.9172
B(  3-C , 12-H ) :   0.9710 B(  3-C , 13-H ) :   0.9895 B(  4-C ,  5-N ) :   1.2760
B(  4-C ,  8-O ) :   1.9839 B(  5-N ,  6-C ) :   0.9491 B(  5-N , 15-H ) :   0.9242
B(  6-C , 16-H ) :   0.9844 B(  6-C , 17-H ) :   0.9704 B(  6-C , 18-H ) :   0.9714

E(0)                                       ...   -453.987752052
E(0)                                       ...   -453.987752052
E(CORR)(strong-pairs)                      ...     -1.748355589
E(CORR)(weak-pairs)                        ...     -0.001907414
E(CORR)(corrected)                         ...     -1.750263002
E(TOT)                                     ...   -455.738015055
E(CCSD(T))                                 ...   -455.811658426
FINAL SINGLE POINT ENERGY      -455.811658425825

DIPOLE MOMENT
-------------
                                X             Y             Z
Electronic contribution:     -1.04824      -2.68210      -1.71469
Nuclear contribution   :      2.50187       2.63333       2.11702
                        -----------------------------------------
Total Dipole Moment    :      1.45363      -0.04878       0.40232
                        -----------------------------------------
Magnitude (a.u.)       :      1.50906
Magnitude (Debye)      :      3.83574

Rotational constants in cm-1:     0.093962     0.032638     0.027256
Rotational constants in MHz :  2816.924099   978.452887   817.111714

                             ****ORCA TERMINATED NORMALLY****
TOTAL RUN TIME: 0 days 0 hours 16 minutes 58 seconds 829 msec
