                         Program Version 4.1.x  -  STABLE  -
|  1> ! RHF DLPNO-CCSD(T) cc-pVTZ RIJK cc-pVTZ/JK cc-pVTZ/C
|  2> ! KDIIS SOSCF TightSCF TightPNO
|  3>
|  4> %pal nprocs 8 end
|  5>
|  6> %maxcore 8000
|  7>
|  8> %scf maxiter 300
|  9>      shift shift 0.2 erroff 0.1 end
| 10> end
| 11>
| 12> * xyzfile 0 1 N_Ac_Ala_N_Me_a_a.xyz
| 13>
| 14>
| 15>                          ****END OF INPUT****

CARTESIAN COORDINATES (ANGSTROEM)
---------------------------------
  C     -3.344180   -1.168370    0.032130
  C     -2.316330   -0.085590   -0.259180
  N     -1.061500   -0.333300    0.216110
  C      0.050590    0.571540   -0.012050
  C      0.066910    1.737400    0.998310
  O     -2.592070    0.945430   -0.881940
  C      1.337770   -0.258920    0.085890
  N      2.427410    0.262800   -0.522740
  C      3.727800   -0.394300   -0.465970
  O      1.376930   -1.306630    0.706320
  H     -3.434280   -1.345060    1.109430
  H     -3.057570   -2.114590   -0.440050
  H     -4.308820   -0.849100   -0.362340
  H     -0.055060    0.986060   -1.021840
  H     -0.830440   -1.202290    0.684490
  H      2.325260    1.102950   -1.072130
  H      4.461280    0.237580   -0.969740
  H      3.695240   -1.371930   -0.957080
  H      4.034370   -0.545000    0.572730
  H     -0.876280    2.283950    0.926180
  H      0.183400    1.357590    2.018020
  H      0.887230    2.432310    0.788870

 Total Charge           Charge          ....    0
 Multiplicity           Mult            ....    1
 Number of Electrons    NEL             ....   78
 Basis Dimension        Dim             ....  468

ORBITAL ENERGIES
----------------

  NO   OCC          E(Eh)            E(eV)
   0   2.0000     -20.527436      -558.5799
   1   2.0000     -20.510580      -558.1213
   2   2.0000     -15.595170      -424.3661
   3   2.0000     -15.577220      -423.8777
   4   2.0000     -11.355384      -308.9957
   5   2.0000     -11.348410      -308.8059
   6   2.0000     -11.286966      -307.1340
   7   2.0000     -11.270799      -306.6940
   8   2.0000     -11.234513      -305.7066
   9   2.0000     -11.228546      -305.5443
  10   2.0000      -1.396492       -38.0005
  11   2.0000      -1.365596       -37.1598
  12   2.0000      -1.239202       -33.7204
  13   2.0000      -1.227629       -33.4055
  14   2.0000      -1.052060       -28.6280
  15   2.0000      -0.988190       -26.8900
  16   2.0000      -0.960600       -26.1392
  17   2.0000      -0.881792       -23.9948
  18   2.0000      -0.801860       -21.8197
  19   2.0000      -0.780202       -21.2304
  20   2.0000      -0.727774       -19.8037
  21   2.0000      -0.671569       -18.2743
  22   2.0000      -0.655777       -17.8446
  23   2.0000      -0.641884       -17.4666
  24   2.0000      -0.631670       -17.1886
  25   2.0000      -0.615637       -16.7523
  26   2.0000      -0.598801       -16.2942
  27   2.0000      -0.584015       -15.8919
  28   2.0000      -0.566357       -15.4114
  29   2.0000      -0.561658       -15.2835
  30   2.0000      -0.561587       -15.2816
  31   2.0000      -0.542687       -14.7673
  32   2.0000      -0.526651       -14.3309
  33   2.0000      -0.521573       -14.1927
  34   2.0000      -0.491992       -13.3878
  35   2.0000      -0.434354       -11.8194
  36   2.0000      -0.418825       -11.3968
  37   2.0000      -0.406652       -11.0656
  38   2.0000      -0.385613       -10.4931
  39   0.0000       0.121282         3.3002
  40   0.0000       0.142687         3.8827
  41   0.0000       0.153221         4.1694
  42   0.0000       0.165089         4.4923
  43   0.0000       0.182075         4.9545

MULLIKEN ATOMIC CHARGES
-----------------------
   0 C :   -0.298050
   1 C :    0.336463
   2 N :   -0.265516
   3 C :    0.016455
   4 C :   -0.283860
   5 O :   -0.468483
   6 C :    0.338007
   7 N :   -0.237984
   8 C :   -0.146214
   9 O :   -0.470082
  10 H :    0.103832
  11 H :    0.105623
  12 H :    0.130743
  13 H :    0.132554
  14 H :    0.205361
  15 H :    0.185108
  16 H :    0.093274
  17 H :    0.100478
  18 H :    0.105431
  19 H :    0.129607
  20 H :    0.097845
  21 H :    0.089407
Sum of atomic charges:    0.0000000

LOEWDIN ATOMIC CHARGES
----------------------
   0 C :    0.115711
   1 C :   -0.367059
   2 N :    0.386388
   3 C :   -0.067141
   4 C :    0.121746
   5 O :    0.039512
   6 C :   -0.379775
   7 N :    0.376417
   8 C :    0.083406
   9 O :    0.076143
  10 H :   -0.019828
  11 H :   -0.018807
  12 H :   -0.013663
  13 H :   -0.016732
  14 H :   -0.079634
  15 H :   -0.080641
  16 H :   -0.028875
  17 H :   -0.026905
  18 H :   -0.024809
  19 H :   -0.018461
  20 H :   -0.025633
  21 H :   -0.031360

  Mayer bond orders larger than 0.1
B(  0-C ,  1-C ) :   0.9417 B(  0-C , 10-H ) :   0.9695 B(  0-C , 11-H ) :   0.9679
B(  0-C , 12-H ) :   0.9816 B(  1-C ,  2-N ) :   1.2341 B(  1-C ,  5-O ) :   1.9434
B(  2-N ,  3-C ) :   0.9505 B(  2-N , 14-H ) :   0.9360 B(  3-C ,  4-C ) :   0.9477
B(  3-C ,  6-C ) :   0.9401 B(  3-C , 13-H ) :   0.9733 B(  4-C , 19-H ) :   0.9736
B(  4-C , 20-H ) :   0.9755 B(  4-C , 21-H ) :   0.9735 B(  6-C ,  7-N ) :   1.2677
B(  6-C ,  9-O ) :   1.9333 B(  7-N ,  8-C ) :   0.9381 B(  7-N , 15-H ) :   0.9694
B(  8-C , 16-H ) :   0.9841 B(  8-C , 17-H ) :   0.9705 B(  8-C , 18-H ) :   0.9694

E(0)                                       ...   -493.038922716
E(0)                                       ...   -493.038922716
E(CORR)(strong-pairs)                      ...     -1.931567746
E(CORR)(weak-pairs)                        ...     -0.002274718
E(CORR)(corrected)                         ...     -1.933842464
E(TOT)                                     ...   -494.972765180
E(CCSD(T))                                 ...   -495.053437933
FINAL SINGLE POINT ENERGY      -495.053437933261

DIPOLE MOMENT
-------------
                                X             Y             Z
Electronic contribution:     -2.00440      -0.94503      -1.34295
Nuclear contribution   :      3.06160       0.98189       1.29241
                        -----------------------------------------
Total Dipole Moment    :      1.05720       0.03687      -0.05054
                        -----------------------------------------
Magnitude (a.u.)       :      1.05905
Magnitude (Debye)      :      2.69190

Rotational constants in cm-1:     0.092841     0.021785     0.019804
Rotational constants in MHz :  2783.307641   653.087741   593.718989

                             ****ORCA TERMINATED NORMALLY****
TOTAL RUN TIME: 0 days 0 hours 29 minutes 20 seconds 31 msec
