                         Program Version 4.1.x  -  STABLE  -
|  1> ! RHF DLPNO-CCSD(T) cc-pVTZ RIJK cc-pVTZ/JK cc-pVTZ/C
|  2> ! KDIIS SOSCF TightSCF TightPNO
|  3>
|  4> %pal nprocs 8 end
|  5>
|  6> %maxcore 8000
|  7>
|  8> %scf maxiter 300
|  9>      shift shift 0.2 erroff 0.1 end
| 10> end
| 11>
| 12> * xyzfile 0 1 N_methylpyrrolidine.xyz
| 13>
| 14>
| 15>                          ****END OF INPUT****

CARTESIAN COORDINATES (ANGSTROEM)
---------------------------------
  C     -1.490570    0.770310   -0.058760
  C     -1.490580   -0.770310   -0.058750
  C     -0.018070   -1.149230    0.161950
  C     -0.018060    1.149230    0.161950
  N      0.708060    0.000000   -0.334360
  C      2.119900   -0.000000   -0.024480
  H     -1.846110   -1.156740   -1.044160
  H     -2.147030   -1.193870    0.738370
  H      0.275030   -2.073610   -0.388860
  H      0.181530   -1.292920    1.251340
  H      0.181530    1.292920    1.251350
  H      0.275040    2.073620   -0.388850
  H      2.298610    0.000000    1.075660
  H      2.601180   -0.900110   -0.469980
  H      2.601180    0.900110   -0.469980
  H     -2.147040    1.193890    0.738340
  H     -1.846100    1.156730   -1.044190

 Total Charge           Charge          ....    0
 Multiplicity           Mult            ....    1
 Number of Electrons    NEL             ....   48
 Basis Dimension        Dim             ....  334

ORBITAL ENERGIES
----------------

  NO   OCC          E(Eh)            E(eV)
   0   2.0000     -15.537570      -422.7988
   1   2.0000     -11.245063      -305.9937
   2   2.0000     -11.245044      -305.9932
   3   2.0000     -11.244900      -305.9893
   4   2.0000     -11.222106      -305.3690
   5   2.0000     -11.221527      -305.3533
   6   2.0000      -1.241586       -33.7853
   7   2.0000      -1.044627       -28.4257
   8   2.0000      -0.970282       -26.4027
   9   2.0000      -0.905349       -24.6358
  10   2.0000      -0.779357       -21.2074
  11   2.0000      -0.775400       -21.0997
  12   2.0000      -0.663872       -18.0649
  13   2.0000      -0.650443       -17.6994
  14   2.0000      -0.599174       -16.3043
  15   2.0000      -0.588621       -16.0172
  16   2.0000      -0.555151       -15.1064
  17   2.0000      -0.523562       -14.2468
  18   2.0000      -0.496612       -13.5135
  19   2.0000      -0.493984       -13.4420
  20   2.0000      -0.472571       -12.8593
  21   2.0000      -0.465362       -12.6632
  22   2.0000      -0.450177       -12.2499
  23   2.0000      -0.349301        -9.5050
  24   0.0000       0.138248         3.7619
  25   0.0000       0.159586         4.3426
  26   0.0000       0.172306         4.6887
  27   0.0000       0.175558         4.7772
  28   0.0000       0.203960         5.5500

MULLIKEN ATOMIC CHARGES
-----------------------
   0 C :   -0.178989
   1 C :   -0.178994
   2 C :   -0.064457
   3 C :   -0.064454
   4 N :   -0.214747
   5 C :   -0.171354
   6 H :    0.091336
   7 H :    0.091863
   8 H :    0.087305
   9 H :    0.050409
  10 H :    0.050405
  11 H :    0.087305
  12 H :    0.052997
  13 H :    0.089093
  14 H :    0.089093
  15 H :    0.091861
  16 H :    0.091329
Sum of atomic charges:   -0.0000000

LOEWDIN ATOMIC CHARGES
----------------------
   0 C :    0.054268
   1 C :    0.054272
   2 C :   -0.025801
   3 C :   -0.025808
   4 N :    0.240727
   5 C :    0.021890
   6 H :   -0.020686
   7 H :   -0.024482
   8 H :   -0.024167
   9 H :   -0.042549
  10 H :   -0.042546
  11 H :   -0.024165
  12 H :   -0.046759
  13 H :   -0.024515
  14 H :   -0.024514
  15 H :   -0.024482
  16 H :   -0.020681

  Mayer bond orders larger than 0.1
B(  0-C ,  1-C ) :   0.9336 B(  0-C ,  3-C ) :   0.9586 B(  0-C , 15-H ) :   0.9958
B(  0-C , 16-H ) :   0.9936 B(  1-C ,  2-C ) :   0.9586 B(  1-C ,  6-H ) :   0.9936
B(  1-C ,  7-H ) :   0.9958 B(  2-C ,  4-N ) :   0.9815 B(  2-C ,  8-H ) :   0.9897
B(  2-C ,  9-H ) :   0.9782 B(  3-C ,  4-N ) :   0.9815 B(  3-C , 10-H ) :   0.9782
B(  3-C , 11-H ) :   0.9897 B(  4-N ,  5-C ) :   0.9894 B(  5-C , 12-H ) :   0.9668
B(  5-C , 13-H ) :   0.9846 B(  5-C , 14-H ) :   0.9846

E(0)                                       ...   -250.257348306
E(0)                                       ...   -250.257348306
E(CORR)(strong-pairs)                      ...     -1.130452802
E(CORR)(weak-pairs)                        ...     -0.001104280
E(CORR)(corrected)                         ...     -1.131557083
E(TOT)                                     ...   -251.388905389
E(CCSD(T))                                 ...   -251.434324471
FINAL SINGLE POINT ENERGY      -251.434324470684

DIPOLE MOMENT
-------------
                                X             Y             Z
Electronic contribution:     -0.48729      -0.00003      -1.10921
Nuclear contribution   :      0.45734       0.00002       1.32027
                        -----------------------------------------
Total Dipole Moment    :     -0.02995      -0.00001       0.21107
                        -----------------------------------------
Magnitude (a.u.)       :      0.21318
Magnitude (Debye)      :      0.54186

Rotational constants in cm-1:     0.222234     0.105120     0.078423
Rotational constants in MHz :  6662.398710  3151.425339  2351.071294

                             ****ORCA TERMINATED NORMALLY****
TOTAL RUN TIME: 0 days 0 hours 7 minutes 0 seconds 368 msec
