                         Program Version 4.1.x  -  STABLE  -
|  1> ! RHF DLPNO-CCSD(T) cc-pVTZ RIJK cc-pVTZ/JK cc-pVTZ/C
|  2> ! KDIIS SOSCF TightSCF TightPNO
|  3>
|  4> %pal nprocs 8 end
|  5>
|  6> %maxcore 8000
|  7>
|  8> %scf maxiter 300
|  9>      shift shift 0.2 erroff 0.1 end
| 10> end
| 11>
| 12> * xyzfile 0 1 N_methylacetamide_Z.xyz
| 13>
| 14>
| 15>                          ****END OF INPUT****

CARTESIAN COORDINATES (ANGSTROEM)
---------------------------------
  C      1.833630   -0.538520    0.000060
  C      0.486150    0.169440   -0.000050
  N     -0.607980   -0.648890   -0.000220
  C     -1.962190   -0.112910    0.000100
  O      0.376830    1.393170   -0.000010
  H     -0.475800   -1.648740    0.000280
  H      1.945240   -1.173360   -0.886070
  H      2.621590    0.214540   -0.000310
  H      1.945430   -1.172610    0.886710
  H     -2.669190   -0.944890   -0.001790
  H     -2.136330    0.505440    0.886220
  H     -2.135230    0.508490   -0.884070

 Total Charge           Charge          ....    0
 Multiplicity           Mult            ....    1
 Number of Electrons    NEL             ....   40
 Basis Dimension        Dim             ....  248

ORBITAL ENERGIES
----------------

  NO   OCC          E(Eh)            E(eV)
   0   2.0000     -20.509636      -558.0956
   1   2.0000     -15.581096      -423.9832
   2   2.0000     -11.345368      -308.7232
   3   2.0000     -11.260213      -306.4060
   4   2.0000     -11.236952      -305.7730
   5   2.0000      -1.367984       -37.2247
   6   2.0000      -1.221269       -33.2324
   7   2.0000      -1.012611       -27.5545
   8   2.0000      -0.928265       -25.2594
   9   2.0000      -0.783886       -21.3306
  10   2.0000      -0.685557       -18.6550
  11   2.0000      -0.644680       -17.5426
  12   2.0000      -0.629222       -17.1220
  13   2.0000      -0.581092       -15.8123
  14   2.0000      -0.576068       -15.6756
  15   2.0000      -0.555686       -15.1210
  16   2.0000      -0.543806       -14.7977
  17   2.0000      -0.499318       -13.5871
  18   2.0000      -0.418310       -11.3828
  19   2.0000      -0.388873       -10.5818
  20   0.0000       0.124628         3.3913
  21   0.0000       0.156923         4.2701
  22   0.0000       0.176392         4.7999
  23   0.0000       0.178589         4.8597
  24   0.0000       0.217402         5.9158

MULLIKEN ATOMIC CHARGES
-----------------------
   0 C :   -0.295982
   1 C :    0.333818
   2 N :   -0.246155
   3 C :   -0.143293
   4 O :   -0.449450
   5 H :    0.179165
   6 H :    0.100643
   7 H :    0.132494
   8 H :    0.100650
   9 H :    0.086838
  10 H :    0.100539
  11 H :    0.100732
Sum of atomic charges:   -0.0000000

LOEWDIN ATOMIC CHARGES
----------------------
   0 C :    0.113043
   1 C :   -0.377183
   2 N :    0.359698
   3 C :    0.076198
   4 O :    0.057290
   5 H :   -0.087463
   6 H :   -0.021557
   7 H :   -0.012765
   8 H :   -0.021549
   9 H :   -0.031445
  10 H :   -0.027168
  11 H :   -0.027100

  Mayer bond orders larger than 0.1
B(  0-C ,  1-C ) :   0.9358 B(  0-C ,  6-H ) :   0.9693 B(  0-C ,  7-H ) :   0.9806
B(  0-C ,  8-H ) :   0.9693 B(  1-C ,  2-N ) :   1.2146 B(  1-C ,  4-O ) :   1.9929
B(  2-N ,  3-C ) :   0.9401 B(  2-N ,  5-H ) :   0.9749 B(  3-C ,  9-H ) :   0.9847
B(  3-C , 10-H ) :   0.9698 B(  3-C , 11-H ) :   0.9698

E(0)                                       ...   -247.097899134
E(0)                                       ...   -247.097899134
E(CORR)(strong-pairs)                      ...     -0.981238189
E(CORR)(weak-pairs)                        ...     -0.000750039
E(CORR)(corrected)                         ...     -0.981988229
E(TOT)                                     ...   -248.079887363
E(CCSD(T))                                 ...   -248.119194253
FINAL SINGLE POINT ENERGY      -248.119194253117

DIPOLE MOMENT
-------------
                                X             Y             Z
Electronic contribution:      0.74167       2.16146      -0.00068
Nuclear contribution   :     -0.92695      -3.79544       0.00099
                        -----------------------------------------
Total Dipole Moment    :     -0.18527      -1.63399       0.00031
                        -----------------------------------------
Magnitude (a.u.)       :      1.64446
Magnitude (Debye)      :      4.17988

Rotational constants in cm-1:     0.331891     0.128363     0.095894
Rotational constants in MHz :  9949.837024  3848.224970  2874.842742

                             ****ORCA TERMINATED NORMALLY****
TOTAL RUN TIME: 0 days 0 hours 3 minutes 9 seconds 804 msec
