                         Program Version 4.1.x  -  STABLE  -
|  1> ! RHF DLPNO-CCSD(T) cc-pVTZ RIJK cc-pVTZ/JK cc-pVTZ/C
|  2> ! KDIIS SOSCF TightSCF TightPNO
|  3>
|  4> %pal nprocs 8 end
|  5>
|  6> %maxcore 8000
|  7>
|  8> %scf maxiter 300
|  9>      shift shift 0.2 erroff 0.1 end
| 10> end
| 11>
| 12> * xyzfile 0 1 N_Me_piperidine_eq.xyz
| 13>
| 14>
| 15>                          ****END OF INPUT****

CARTESIAN COORDINATES (ANGSTROEM)
---------------------------------
  C      1.900080    0.000000    0.240050
  C      1.156670   -1.259180   -0.226900
  C     -0.317070   -1.211620    0.188750
  N     -0.972740   -0.000010   -0.307660
  C     -0.317100    1.211610    0.188750
  C      1.156640    1.259220   -0.226900
  C     -2.398710   -0.000020   -0.015690
  H     -0.851980   -2.079080   -0.214880
  H     -0.389150   -1.274000    1.296650
  H     -0.389180    1.274000    1.296650
  H     -0.852030    2.079060   -0.214880
  H      1.212260   -1.336390   -1.320320
  H      1.622180   -2.161410    0.188400
  H      1.622130    2.161450    0.188400
  H      1.212230    1.336410   -1.320320
  H      1.960930    0.000010    1.338120
  H      2.931410   -0.000010   -0.132700
  H     -2.867440    0.886360   -0.455540
  H     -2.867450   -0.886380   -0.455560
  H     -2.617720   -0.000030    1.071290

 Total Charge           Charge          ....    0
 Multiplicity           Mult            ....    1
 Number of Electrons    NEL             ....   56
 Basis Dimension        Dim             ....  392

ORBITAL ENERGIES
----------------

  NO   OCC          E(Eh)            E(eV)
   0   2.0000     -15.539403      -422.8487
   1   2.0000     -11.242604      -305.9268
   2   2.0000     -11.242589      -305.9264
   3   2.0000     -11.238605      -305.8180
   4   2.0000     -11.216826      -305.2254
   5   2.0000     -11.215237      -305.1821
   6   2.0000     -11.215116      -305.1788
   7   2.0000      -1.224039       -33.3078
   8   2.0000      -1.064705       -28.9721
   9   2.0000      -1.008627       -27.4461
  10   2.0000      -0.929277       -25.2869
  11   2.0000      -0.843207       -22.9448
  12   2.0000      -0.828397       -22.5418
  13   2.0000      -0.748626       -20.3711
  14   2.0000      -0.653440       -17.7810
  15   2.0000      -0.620316       -16.8797
  16   2.0000      -0.620283       -16.8788
  17   2.0000      -0.604364       -16.4456
  18   2.0000      -0.574157       -15.6236
  19   2.0000      -0.548652       -14.9296
  20   2.0000      -0.531048       -14.4506
  21   2.0000      -0.529581       -14.4106
  22   2.0000      -0.498372       -13.5614
  23   2.0000      -0.484562       -13.1856
  24   2.0000      -0.461570       -12.5600
  25   2.0000      -0.441240       -12.0067
  26   2.0000      -0.439774       -11.9669
  27   2.0000      -0.348718        -9.4891
  28   0.0000       0.142543         3.8788
  29   0.0000       0.158221         4.3054
  30   0.0000       0.165374         4.5001
  31   0.0000       0.167831         4.5669
  32   0.0000       0.196472         5.3463

MULLIKEN ATOMIC CHARGES
-----------------------
   0 C :   -0.192557
   1 C :   -0.183340
   2 C :   -0.071842
   3 N :   -0.236295
   4 C :   -0.071838
   5 C :   -0.183354
   6 C :   -0.183543
   7 H :    0.095158
   8 H :    0.056735
   9 H :    0.056734
  10 H :    0.095156
  11 H :    0.089553
  12 H :    0.101916
  13 H :    0.101924
  14 H :    0.089554
  15 H :    0.088133
  16 H :    0.106588
  17 H :    0.093092
  18 H :    0.093095
  19 H :    0.055132
Sum of atomic charges:    0.0000000

LOEWDIN ATOMIC CHARGES
----------------------
   0 C :    0.054183
   1 C :    0.056614
   2 C :   -0.017054
   3 N :    0.239499
   4 C :   -0.017061
   5 C :    0.056633
   6 C :    0.033720
   7 H :   -0.027839
   8 H :   -0.041566
   9 H :   -0.041566
  10 H :   -0.027838
  11 H :   -0.025356
  12 H :   -0.026444
  13 H :   -0.026451
  14 H :   -0.025360
  15 H :   -0.027533
  16 H :   -0.027564
  17 H :   -0.031662
  18 H :   -0.031664
  19 H :   -0.045691

  Mayer bond orders larger than 0.1
B(  0-C ,  1-C ) :   0.9521 B(  0-C ,  5-C ) :   0.9521 B(  0-C , 15-H ) :   0.9847
B(  0-C , 16-H ) :   0.9939 B(  1-C ,  2-C ) :   0.9619 B(  1-C , 11-H ) :   0.9812
B(  1-C , 12-H ) :   0.9931 B(  2-C ,  3-N ) :   0.9768 B(  2-C ,  7-H ) :   0.9908
B(  2-C ,  8-H ) :   0.9731 B(  3-N ,  4-C ) :   0.9768 B(  3-N ,  6-C ) :   0.9900
B(  4-C ,  5-C ) :   0.9619 B(  4-C ,  9-H ) :   0.9731 B(  4-C , 10-H ) :   0.9908
B(  5-C , 13-H ) :   0.9931 B(  5-C , 14-H ) :   0.9812 B(  6-C , 17-H ) :   0.9852
B(  6-C , 18-H ) :   0.9852 B(  6-C , 19-H ) :   0.9653

E(0)                                       ...   -289.316510007
E(0)                                       ...   -289.316510007
E(CORR)(strong-pairs)                      ...     -1.315190864
E(CORR)(weak-pairs)                        ...     -0.001357501
E(CORR)(corrected)                         ...     -1.316548365
E(TOT)                                     ...   -290.633058371
E(CCSD(T))                                 ...   -290.685823909
FINAL SINGLE POINT ENERGY      -290.685823908776

DIPOLE MOMENT
-------------
                                X             Y             Z
Electronic contribution:      0.32241       0.00000      -1.12865
Nuclear contribution   :     -0.29643      -0.00001       1.33987
                        -----------------------------------------
Total Dipole Moment    :      0.02598      -0.00001       0.21122
                        -----------------------------------------
Magnitude (a.u.)       :      0.21281
Magnitude (Debye)      :      0.54092

Rotational constants in cm-1:     0.147229     0.076314     0.055039
Rotational constants in MHz :  4413.827562  2287.821804  1650.026309

                             ****ORCA TERMINATED NORMALLY****
TOTAL RUN TIME: 0 days 0 hours 11 minutes 27 seconds 919 msec
