                         Program Version 4.1.x  -  STABLE  -
|  1> ! RHF DLPNO-CCSD(T) cc-pVTZ RIJK cc-pVTZ/JK cc-pVTZ/C
|  2> ! KDIIS SOSCF TightSCF TightPNO
|  3>
|  4> %pal nprocs 8 end
|  5>
|  6> %maxcore 8000
|  7>
|  8> %scf maxiter 300
|  9>      shift shift 0.2 erroff 0.1 end
| 10> end
| 11>
| 12> * xyzfile 0 1 N_methylacetamide_E.xyz
| 13>
| 14>
| 15>                          ****END OF INPUT****

CARTESIAN COORDINATES (ANGSTROEM)
---------------------------------
  C     -0.742300    1.353810   -0.000040
  C     -0.621270   -0.160500   -0.000020
  N      0.649280   -0.672810   -0.000260
  C      1.897310    0.075440    0.000120
  O     -1.603510   -0.899070    0.000120
  H      0.685690   -1.683270   -0.000020
  H     -0.263430    1.790320   -0.883640
  H     -1.800950    1.611890   -0.000160
  H     -0.263660    1.790280    0.883720
  H      2.725720   -0.635550   -0.000190
  H      1.998690    0.708380   -0.889380
  H      1.998680    0.707630    0.890170

 Total Charge           Charge          ....    0
 Multiplicity           Mult            ....    1
 Number of Electrons    NEL             ....   40
 Basis Dimension        Dim             ....  248

ORBITAL ENERGIES
----------------

  NO   OCC          E(Eh)            E(eV)
   0   2.0000     -20.507345      -558.0332
   1   2.0000     -15.580637      -423.9707
   2   2.0000     -11.346917      -308.7653
   3   2.0000     -11.277392      -306.8734
   4   2.0000     -11.236706      -305.7663
   5   2.0000      -1.366086       -37.1731
   6   2.0000      -1.223375       -33.2897
   7   2.0000      -1.003724       -27.3127
   8   2.0000      -0.953631       -25.9496
   9   2.0000      -0.779978       -21.2243
  10   2.0000      -0.671672       -18.2771
  11   2.0000      -0.662806       -18.0359
  12   2.0000      -0.638635       -17.3781
  13   2.0000      -0.580307       -15.7910
  14   2.0000      -0.575024       -15.6472
  15   2.0000      -0.559950       -15.2370
  16   2.0000      -0.553864       -15.0714
  17   2.0000      -0.510656       -13.8957
  18   2.0000      -0.416092       -11.3225
  19   2.0000      -0.386221       -10.5096
  20   0.0000       0.124460         3.3867
  21   0.0000       0.157180         4.2771
  22   0.0000       0.175661         4.7800
  23   0.0000       0.184202         5.0124
  24   0.0000       0.189307         5.1513

MULLIKEN ATOMIC CHARGES
-----------------------
   0 C :   -0.307621
   1 C :    0.317085
   2 N :   -0.223999
   3 C :   -0.160770
   4 O :   -0.443161
   5 H :    0.184750
   6 H :    0.101698
   7 H :    0.141329
   8 H :    0.101686
   9 H :    0.112980
  10 H :    0.088018
  11 H :    0.088004
Sum of atomic charges:    0.0000000

LOEWDIN ATOMIC CHARGES
----------------------
   0 C :    0.114483
   1 C :   -0.374999
   2 N :    0.361403
   3 C :    0.066717
   4 O :    0.050683
   5 H :   -0.076501
   6 H :   -0.020571
   7 H :   -0.012004
   8 H :   -0.020561
   9 H :   -0.022204
  10 H :   -0.033218
  11 H :   -0.033228

  Mayer bond orders larger than 0.1
B(  0-C ,  1-C ) :   0.9289 B(  0-C ,  6-H ) :   0.9661 B(  0-C ,  7-H ) :   0.9796
B(  0-C ,  8-H ) :   0.9661 B(  1-C ,  2-N ) :   1.2139 B(  1-C ,  4-O ) :   2.0536
B(  2-N ,  3-C ) :   0.9661 B(  2-N ,  5-H ) :   0.9541 B(  3-C ,  9-H ) :   0.9855
B(  3-C , 10-H ) :   0.9680 B(  3-C , 11-H ) :   0.9680

E(0)                                       ...   -247.093943105
E(0)                                       ...   -247.093943105
E(CORR)(strong-pairs)                      ...     -0.981759422
E(CORR)(weak-pairs)                        ...     -0.000756477
E(CORR)(corrected)                         ...     -0.982515899
E(TOT)                                     ...   -248.076459005
E(CCSD(T))                                 ...   -248.115874600
FINAL SINGLE POINT ENERGY      -248.115874599860

DIPOLE MOMENT
-------------
                                X             Y             Z
Electronic contribution:     -3.63036      -3.63455      -0.00037
Nuclear contribution   :      5.19962       4.39008       0.00051
                        -----------------------------------------
Total Dipole Moment    :      1.56927       0.75552       0.00014
                        -----------------------------------------
Magnitude (a.u.)       :      1.74167
Magnitude (Debye)      :      4.42697

Rotational constants in cm-1:     0.291907     0.135975     0.096118
Rotational constants in MHz :  8751.149703  4076.423307  2881.533768

                             ****ORCA TERMINATED NORMALLY****
TOTAL RUN TIME: 0 days 0 hours 3 minutes 21 seconds 93 msec
