                         Program Version 4.1.x  -  STABLE  -
|  1> ! RHF DLPNO-CCSD(T) cc-pVTZ RIJK cc-pVTZ/JK cc-pVTZ/C
|  2> ! KDIIS SOSCF TightSCF TightPNO
|  3>
|  4> %pal nprocs 8 end
|  5>
|  6> %maxcore 8000
|  7>
|  8> %scf maxiter 300
|  9>      shift shift 0.2 erroff 0.1 end
| 10> end
| 11>
| 12> * xyzfile 0 1 N_Me_ethylamine_g_.xyz
| 13>
| 14>
| 15>                          ****END OF INPUT****

CARTESIAN COORDINATES (ANGSTROEM)
---------------------------------
  C     -1.583100   -0.520200   -0.117850
  C     -0.635870    0.611870    0.285770
  N      0.658550    0.529820   -0.396430
  C      1.549120   -0.510360    0.111550
  H     -0.521770    0.614550    1.387910
  H     -1.089410    1.571100    0.010710
  H     -2.556760   -0.393770    0.368500
  H     -1.731740   -0.525150   -1.202420
  H      1.125480    1.429620   -0.340910
  H     -1.195200   -1.501070    0.176490
  H      2.524780   -0.421460   -0.375540
  H      1.701840   -0.469970    1.206630
  H      1.152130   -1.500420   -0.133190

 Total Charge           Charge          ....    0
 Multiplicity           Mult            ....    1
 Number of Electrons    NEL             ....   34
 Basis Dimension        Dim             ....  246

ORBITAL ENERGIES
----------------

  NO   OCC          E(Eh)            E(eV)
   0   2.0000     -15.535977      -422.7554
   1   2.0000     -11.246121      -306.0225
   2   2.0000     -11.239559      -305.8440
   3   2.0000     -11.209021      -305.0130
   4   2.0000      -1.193796       -32.4848
   5   2.0000      -0.998850       -27.1801
   6   2.0000      -0.902554       -24.5597
   7   2.0000      -0.800623       -21.7861
   8   2.0000      -0.663147       -18.0451
   9   2.0000      -0.623830       -16.9753
  10   2.0000      -0.588597       -16.0165
  11   2.0000      -0.553891       -15.0721
  12   2.0000      -0.538638       -14.6571
  13   2.0000      -0.505527       -13.7561
  14   2.0000      -0.490164       -13.3380
  15   2.0000      -0.473863       -12.8945
  16   2.0000      -0.364408        -9.9161
  17   0.0000       0.139094         3.7850
  18   0.0000       0.167439         4.5563
  19   0.0000       0.171924         4.6783
  20   0.0000       0.192815         5.2468
  21   0.0000       0.220368         5.9965

MULLIKEN ATOMIC CHARGES
-----------------------
   0 C :   -0.275349
   1 C :   -0.054103
   2 N :   -0.275183
   3 C :   -0.167517
   4 H :    0.054463
   5 H :    0.087419
   6 H :    0.092299
   7 H :    0.096585
   8 H :    0.121076
   9 H :    0.084923
  10 H :    0.096887
  11 H :    0.051069
  12 H :    0.087430
Sum of atomic charges:    0.0000000

LOEWDIN ATOMIC CHARGES
----------------------
   0 C :    0.103093
   1 C :   -0.024741
   2 N :    0.283229
   3 C :    0.036762
   4 H :   -0.044722
   5 H :   -0.030459
   6 H :   -0.029763
   7 H :   -0.028690
   8 H :   -0.113403
   9 H :   -0.034742
  10 H :   -0.032779
  11 H :   -0.048332
  12 H :   -0.035451

  Mayer bond orders larger than 0.1
B(  0-C ,  1-C ) :   0.9530 B(  0-C ,  6-H ) :   0.9828 B(  0-C ,  7-H ) :   0.9770
B(  0-C ,  9-H ) :   0.9825 B(  1-C ,  2-N ) :   0.9831 B(  1-C ,  4-H ) :   0.9763
B(  1-C ,  5-H ) :   0.9908 B(  2-N ,  3-C ) :   0.9859 B(  2-N ,  8-H ) :   0.9930
B(  3-C , 10-H ) :   0.9886 B(  3-C , 11-H ) :   0.9652 B(  3-C , 12-H ) :   0.9770

E(0)                                       ...   -173.340536882
E(0)                                       ...   -173.340536882
E(CORR)(strong-pairs)                      ...     -0.796754973
E(CORR)(weak-pairs)                        ...     -0.000548948
E(CORR)(corrected)                         ...     -0.797303921
E(TOT)                                     ...   -174.137840803
E(CCSD(T))                                 ...   -174.167018700
FINAL SINGLE POINT ENERGY      -174.167018700024

DIPOLE MOMENT
-------------
                                X             Y             Z
Electronic contribution:      0.73806       1.44661      -0.84195
Nuclear contribution   :     -0.63389      -1.28922       1.18377
                        -----------------------------------------
Total Dipole Moment    :      0.10417       0.15739       0.34182
                        -----------------------------------------
Magnitude (a.u.)       :      0.39047
Magnitude (Debye)      :      0.99248

Rotational constants in cm-1:     0.497688     0.163480     0.141142
Rotational constants in MHz : 14920.299914  4901.012445  4231.330940

                             ****ORCA TERMINATED NORMALLY****
TOTAL RUN TIME: 0 days 0 hours 2 minutes 23 seconds 879 msec
