                         Program Version 4.1.x  -  STABLE  -
|  1> ! RHF DLPNO-CCSD(T) cc-pVTZ RIJK cc-pVTZ/JK cc-pVTZ/C
|  2> ! KDIIS SOSCF TightSCF TightPNO
|  3>
|  4> %pal nprocs 8 end
|  5>
|  6> %maxcore 8000
|  7>
|  8> %scf maxiter 300
|  9>      shift shift 0.2 erroff 0.1 end
| 10> end
| 11>
| 12> * xyzfile 0 1 N_Me_Acetamide_E.xyz
| 13>
| 14>
| 15>                          ****END OF INPUT****

CARTESIAN COORDINATES (ANGSTROEM)
---------------------------------
  C      0.807080    1.326640   -0.000000
  C      0.597040   -0.177830    0.000020
  N     -0.687430   -0.682760   -0.000020
  C     -1.869970    0.142850    0.000010
  O      1.541260   -0.930900    0.000000
  H      1.893240    1.574220    0.000230
  H      0.357560    1.786040   -0.909300
  H      0.357150    1.786140    0.909040
  H     -0.750790   -1.703760    0.000000
  H     -1.908970    0.777670    0.914010
  H     -1.908610    0.778320   -0.913570
  H     -2.762460   -0.522040   -0.000420

 Total Charge           Charge          ....    0
 Multiplicity           Mult            ....    1
 Number of Electrons    NEL             ....   40
 Basis Dimension        Dim             ....  248

ORBITAL ENERGIES
----------------

  NO   OCC          E(Eh)            E(eV)
   0   2.0000     -20.506812      -558.0187
   1   2.0000     -15.577984      -423.8985
   2   2.0000     -11.343696      -308.6777
   3   2.0000     -11.278963      -306.9162
   4   2.0000     -11.243679      -305.9561
   5   2.0000      -1.379180       -37.5294
   6   2.0000      -1.221513       -33.2391
   7   2.0000      -0.996915       -27.1274
   8   2.0000      -0.942827       -25.6556
   9   2.0000      -0.775391       -21.0995
  10   2.0000      -0.668898       -18.2016
  11   2.0000      -0.661887       -18.0109
  12   2.0000      -0.638363       -17.3707
  13   2.0000      -0.578412       -15.7394
  14   2.0000      -0.575265       -15.6538
  15   2.0000      -0.553052       -15.0493
  16   2.0000      -0.548839       -14.9347
  17   2.0000      -0.513012       -13.9598
  18   2.0000      -0.414719       -11.2851
  19   2.0000      -0.383838       -10.4448
  20   0.0000       0.125222         3.4075
  21   0.0000       0.155985         4.2446
  22   0.0000       0.175303         4.7702
  23   0.0000       0.183930         5.0050
  24   0.0000       0.191679         5.2158

MULLIKEN ATOMIC CHARGES
-----------------------
   0 C :   -0.295518
   1 C :    0.315343
   2 N :   -0.232047
   3 C :   -0.152226
   4 O :   -0.423536
   5 H :    0.135886
   6 H :    0.096653
   7 H :    0.096635
   8 H :    0.190300
   9 H :    0.081447
  10 H :    0.081434
  11 H :    0.105628
Sum of atomic charges:   -0.0000000

LOEWDIN ATOMIC CHARGES
----------------------
   0 C :    0.100377
   1 C :   -0.397302
   2 N :    0.347281
   3 C :    0.042354
   4 O :    0.084416
   5 H :   -0.002311
   6 H :   -0.016160
   7 H :   -0.016168
   8 H :   -0.066064
   9 H :   -0.029714
  10 H :   -0.029695
  11 H :   -0.017014

  Mayer bond orders larger than 0.1
B(  0-C ,  1-C ) :   0.9316 B(  0-C ,  5-H ) :   0.9807 B(  0-C ,  6-H ) :   0.9661
B(  0-C ,  7-H ) :   0.9661 B(  1-C ,  2-N ) :   1.1978 B(  1-C ,  4-O ) :   2.0746
B(  2-N ,  3-C ) :   0.9719 B(  2-N ,  8-H ) :   0.9489 B(  3-C ,  9-H ) :   0.9695
B(  3-C , 10-H ) :   0.9695 B(  3-C , 11-H ) :   0.9857

E(0)                                       ...   -247.089845190
E(0)                                       ...   -247.089845190
E(CORR)(strong-pairs)                      ...     -0.981755599
E(CORR)(weak-pairs)                        ...     -0.000756127
E(CORR)(corrected)                         ...     -0.982511726
E(TOT)                                     ...   -248.072356916
E(CCSD(T))                                 ...   -248.111680932
FINAL SINGLE POINT ENERGY      -248.111680932053

DIPOLE MOMENT
-------------
                                X             Y             Z
Electronic contribution:      3.41519      -3.82879       0.00002
Nuclear contribution   :     -4.83310       4.58158      -0.00002
                        -----------------------------------------
Total Dipole Moment    :     -1.41791       0.75279       0.00000
                        -----------------------------------------
Magnitude (a.u.)       :      1.60535
Magnitude (Debye)      :      4.08048

Rotational constants in cm-1:     0.288787     0.138778     0.097361
Rotational constants in MHz :  8657.626939  4160.459456  2918.799361

                             ****ORCA TERMINATED NORMALLY****
TOTAL RUN TIME: 0 days 0 hours 3 minutes 38 seconds 11 msec
