                         Program Version 4.1.x  -  STABLE  -
|  1> ! RHF DLPNO-CCSD(T) cc-pVTZ RIJK cc-pVTZ/JK cc-pVTZ/C
|  2> ! KDIIS SOSCF TightSCF TightPNO
|  3>
|  4> %pal nprocs 8 end
|  5>
|  6> %maxcore 8000
|  7>
|  8> %scf maxiter 300
|  9>      shift shift 0.2 erroff 0.1 end
| 10> end
| 11>
| 12> * xyzfile 0 1 N_Me_spiro_piperidine_2_2p_adamantane_ch.xyz
| 13>
| 14>
| 15>                          ****END OF INPUT****

CARTESIAN COORDINATES (ANGSTROEM)
---------------------------------
  C     -2.371750   -1.108930   -0.400950
  C     -1.324770   -1.720660    0.539970
  C     -0.308420   -0.641270    0.964970
  C      0.483110   -0.028840   -0.237560
  C     -0.634190    0.547480   -1.166760
  C     -1.658170   -0.513260   -1.622390
  C     -1.424270    1.663630   -0.448930
  C     -2.133770    1.082900    0.784450
  C     -1.086590    0.457560    1.719840
  C     -3.133310    0.003410    0.338260
  C      1.313060   -1.097020   -1.010970
  C      2.429090   -1.656700   -0.113340
  C      3.331210   -0.504150    0.338280
  C      2.468980    0.526990    1.082920
  N      1.403200    1.041820    0.219790
  C      1.964960    1.881560   -0.835870
  H     -3.092770   -1.897990   -0.730250
  H     -0.821300   -2.587960    0.055430
  H     -1.834490   -2.142480    1.438810
  H      0.374340   -1.129720    1.696220
  H     -0.178570    0.958270   -2.098990
  H     -1.177160   -1.317890   -2.223740
  H     -2.410900   -0.050580   -2.304250
  H     -2.173590    2.113670   -1.142420
  H     -0.762210    2.502210   -0.133810
  H     -2.682060    1.895880    1.322420
  H     -1.592180    0.027250    2.616800
  H     -0.397840    1.243610    2.108090
  H     -3.669570   -0.416170    1.222220
  H     -3.910730    0.447970   -0.327320
  H      1.747450   -0.676180   -1.946010
  H      0.692320   -1.954970   -1.347820
  H      3.036500   -2.394530   -0.691130
  H      2.019280   -2.213060    0.760920
  H      3.874620   -0.056290   -0.525680
  H      4.116480   -0.897090    1.028030
  H      3.112150    1.367770    1.436880
  H      2.053360    0.092050    2.019620
  H      1.183170    2.487920   -1.342650
  H      2.663560    2.635920   -0.406260
  H      2.516660    1.313460   -1.615080

 Total Charge           Charge          ....    0
 Multiplicity           Mult            ....    1
 Number of Electrons    NEL             ....  122
 Basis Dimension        Dim             ....  830

ORBITAL ENERGIES
----------------

  NO   OCC          E(Eh)            E(eV)
   0   2.0000     -15.537117      -422.7865
   1   2.0000     -11.258533      -306.3603
   2   2.0000     -11.244393      -305.9755
   3   2.0000     -11.241579      -305.8989
   4   2.0000     -11.220502      -305.3254
   5   2.0000     -11.220453      -305.3240
   6   2.0000     -11.218746      -305.2776
   7   2.0000     -11.217998      -305.2572
   8   2.0000     -11.216174      -305.2076
   9   2.0000     -11.215346      -305.1851
  10   2.0000     -11.214994      -305.1755
  11   2.0000     -11.214836      -305.1712
  12   2.0000     -11.214805      -305.1704
  13   2.0000     -11.211216      -305.0727
  14   2.0000     -11.208726      -305.0049
  15   2.0000     -11.208129      -304.9887
  16   2.0000      -1.228966       -33.4419
  17   2.0000      -1.147986       -31.2383
  18   2.0000      -1.058225       -28.7958
  19   2.0000      -1.034725       -28.1563
  20   2.0000      -1.027645       -27.9636
  21   2.0000      -1.025523       -27.9059
  22   2.0000      -0.963220       -26.2106
  23   2.0000      -0.922564       -25.1043
  24   2.0000      -0.893172       -24.3044
  25   2.0000      -0.853379       -23.2216
  26   2.0000      -0.834597       -22.7105
  27   2.0000      -0.801005       -21.7964
  28   2.0000      -0.779919       -21.2227
  29   2.0000      -0.775422       -21.1003
  30   2.0000      -0.736519       -20.0417
  31   2.0000      -0.690899       -18.8003
  32   2.0000      -0.653914       -17.7939
  33   2.0000      -0.626464       -17.0470
  34   2.0000      -0.621829       -16.9208
  35   2.0000      -0.610688       -16.6177
  36   2.0000      -0.603267       -16.4157
  37   2.0000      -0.588590       -16.0163
  38   2.0000      -0.581442       -15.8219
  39   2.0000      -0.574827       -15.6418
  40   2.0000      -0.564788       -15.3687
  41   2.0000      -0.559377       -15.2214
  42   2.0000      -0.538952       -14.6656
  43   2.0000      -0.536205       -14.5909
  44   2.0000      -0.533166       -14.5082
  45   2.0000      -0.528176       -14.3724
  46   2.0000      -0.521690       -14.1959
  47   2.0000      -0.506761       -13.7897
  48   2.0000      -0.489005       -13.3065
  49   2.0000      -0.486299       -13.2329
  50   2.0000      -0.477744       -13.0001
  51   2.0000      -0.464445       -12.6382
  52   2.0000      -0.455502       -12.3949
  53   2.0000      -0.454593       -12.3701
  54   2.0000      -0.448238       -12.1972
  55   2.0000      -0.441777       -12.0214
  56   2.0000      -0.429864       -11.6972
  57   2.0000      -0.400176       -10.8894
  58   2.0000      -0.397483       -10.8161
  59   2.0000      -0.388621       -10.5749
  60   2.0000      -0.331581        -9.0228
  61   0.0000       0.128721         3.5027
  62   0.0000       0.146147         3.9769
  63   0.0000       0.153109         4.1663
  64   0.0000       0.157889         4.2964
  65   0.0000       0.171566         4.6685

MULLIKEN ATOMIC CHARGES
-----------------------
   0 C :   -0.053243
   1 C :   -0.231165
   2 C :   -0.127754
   3 C :    0.160999
   4 C :   -0.111938
   5 C :   -0.242446
   6 C :   -0.208516
   7 C :   -0.068207
   8 C :   -0.200061
   9 C :   -0.214663
  10 C :   -0.257787
  11 C :   -0.190422
  12 C :   -0.194264
  13 C :   -0.109736
  14 N :   -0.253238
  15 C :   -0.222862
  16 H :    0.096662
  17 H :    0.106746
  18 H :    0.102698
  19 H :    0.112297
  20 H :    0.108832
  21 H :    0.107278
  22 H :    0.102813
  23 H :    0.096668
  24 H :    0.109253
  25 H :    0.095831
  26 H :    0.096922
  27 H :    0.108439
  28 H :    0.094821
  29 H :    0.095527
  30 H :    0.114167
  31 H :    0.116548
  32 H :    0.101158
  33 H :    0.095627
  34 H :    0.094207
  35 H :    0.097062
  36 H :    0.100483
  37 H :    0.096411
  38 H :    0.100300
  39 H :    0.101313
  40 H :    0.073238
Sum of atomic charges:   -0.0000000

LOEWDIN ATOMIC CHARGES
----------------------
   0 C :   -0.016077
   1 C :    0.063483
   2 C :    0.002841
   3 C :   -0.132028
   4 C :    0.001535
   5 C :    0.063347
   6 C :    0.063112
   7 C :   -0.013711
   8 C :    0.064146
   9 C :    0.058889
  10 C :    0.055366
  11 C :    0.045095
  12 C :    0.037776
  13 C :   -0.026116
  14 N :    0.255499
  15 C :    0.027145
  16 H :   -0.017752
  17 H :   -0.022725
  18 H :   -0.015159
  19 H :   -0.025630
  20 H :   -0.018960
  21 H :   -0.022236
  22 H :   -0.015610
  23 H :   -0.020484
  24 H :   -0.019012
  25 H :   -0.017267
  26 H :   -0.020195
  27 H :   -0.019018
  28 H :   -0.020330
  29 H :   -0.020134
  30 H :   -0.020331
  31 H :   -0.026059
  32 H :   -0.021578
  33 H :   -0.021442
  34 H :   -0.021954
  35 H :   -0.022441
  36 H :   -0.021305
  37 H :   -0.021369
  38 H :   -0.028162
  39 H :   -0.022497
  40 H :   -0.048652

  Mayer bond orders larger than 0.1
B(  0-C ,  1-C ) :   0.9431 B(  0-C ,  5-C ) :   0.9432 B(  0-C ,  9-C ) :   0.9411
B(  0-C , 16-H ) :   1.0020 B(  1-C ,  2-C ) :   0.9488 B(  1-C , 17-H ) :   0.9955
B(  1-C , 18-H ) :   0.9998 B(  2-C ,  3-C ) :   0.9629 B(  2-C ,  8-C ) :   0.9465
B(  2-C , 19-H ) :   0.9916 B(  3-C ,  4-C ) :   0.9491 B(  3-C , 10-C ) :   0.9725
B(  3-C , 14-N ) :   0.9684 B(  4-C ,  5-C ) :   0.9533 B(  4-C ,  6-C ) :   0.9460
B(  4-C , 20-H ) :   0.9910 B(  5-C , 21-H ) :   0.9964 B(  5-C , 22-H ) :   1.0000
B(  6-C ,  7-C ) :   0.9492 B(  6-C , 23-H ) :   1.0020 B(  6-C , 24-H ) :   0.9899
B(  7-C ,  8-C ) :   0.9499 B(  7-C ,  9-C ) :   0.9425 B(  7-C , 25-H ) :   1.0014
B(  8-C , 26-H ) :   1.0024 B(  8-C , 27-H ) :   0.9869 B(  9-C , 28-H ) :   0.9993
B(  9-C , 29-H ) :   0.9992 B( 10-C , 11-C ) :   0.9526 B( 10-C , 30-H ) :   0.9825
B( 10-C , 31-H ) :   0.9871 B( 11-C , 12-C ) :   0.9398 B( 11-C , 32-H ) :   0.9978
B( 11-C , 33-H ) :   0.9837 B( 12-C , 13-C ) :   0.9462 B( 12-C , 34-H ) :   0.9828
B( 12-C , 35-H ) :   0.9927 B( 13-C , 14-N ) :   0.9868 B( 13-C , 36-H ) :   0.9990
B( 13-C , 37-H ) :   0.9855 B( 14-N , 15-C ) :   0.9816 B( 15-C , 38-H ) :   0.9804
B( 15-C , 39-H ) :   0.9868 B( 15-C , 40-H ) :   0.9676

E(0)                                       ...   -637.209064994
E(0)                                       ...   -637.209064994
E(CORR)(strong-pairs)                      ...     -2.896398409
E(CORR)(weak-pairs)                        ...     -0.005200984
E(CORR)(corrected)                         ...     -2.901599392
E(TOT)                                     ...   -640.110664387
E(CCSD(T))                                 ...   -640.238115950
FINAL SINGLE POINT ENERGY      -640.238115950142

DIPOLE MOMENT
-------------
                                X             Y             Z
Electronic contribution:     -2.60166       0.51137       1.04173
Nuclear contribution   :      2.81457      -0.67140      -1.17888
                        -----------------------------------------
Total Dipole Moment    :      0.21291      -0.16003      -0.13715
                        -----------------------------------------
Magnitude (a.u.)       :      0.29958
Magnitude (Debye)      :      0.76148

Rotational constants in cm-1:     0.034010     0.015884     0.014675
Rotational constants in MHz :  1019.583430   476.182893   439.944518

                             ****ORCA TERMINATED NORMALLY****
TOTAL RUN TIME: 0 days 4 hours 50 minutes 53 seconds 218 msec
