                         Program Version 4.1.x  -  STABLE  -
|  1> ! RHF DLPNO-CCSD(T) cc-pVTZ RIJK cc-pVTZ/JK cc-pVTZ/C
|  2> ! KDIIS SOSCF TightSCF TightPNO
|  3>
|  4> %pal nprocs 8 end
|  5>
|  6> %maxcore 8000
|  7>
|  8> %scf maxiter 300
|  9>      shift shift 0.2 erroff 0.1 end
| 10> end
| 11>
| 12> * xyzfile 1 1 N_Me_piperidinium_eq.xyz
| 13>
| 14>
| 15>                          ****END OF INPUT****

CARTESIAN COORDINATES (ANGSTROEM)
---------------------------------
  C      1.922630    0.000000    0.261240
  C      1.190230   -1.262280   -0.215080
  C     -0.278320   -1.257150    0.204080
  N     -0.980100   -0.000000   -0.289340
  C     -0.278330    1.257150    0.204090
  C      1.190220    1.262280   -0.215080
  C     -2.444310   -0.000000    0.049940
  H     -0.830760   -2.107660   -0.202650
  H     -0.391920   -1.254620    1.292400
  H     -0.391930    1.254610    1.292400
  H     -0.830750    2.107670   -0.202650
  H      1.260890   -1.355970   -1.307440
  H      1.649410   -2.165170    0.199790
  H      1.649410    2.165170    0.199790
  H      1.260880    1.355980   -1.307440
  H      1.987930    0.000000    1.356890
  H      2.949630    0.000000   -0.114150
  H     -2.906410    0.894260   -0.369850
  H     -2.906410   -0.894260   -0.369840
  H     -2.549040    0.000010    1.135380
  H     -0.903050    0.000000   -1.312380

 Total Charge           Charge          ....    1
 Multiplicity           Mult            ....    1
 Number of Electrons    NEL             ....   56
 Basis Dimension        Dim             ....  406

ORBITAL ENERGIES
----------------

  NO   OCC          E(Eh)            E(eV)
   0   2.0000     -15.857579      -431.5067
   1   2.0000     -11.452494      -311.6382
   2   2.0000     -11.452483      -311.6379
   3   2.0000     -11.450871      -311.5940
   4   2.0000     -11.388948      -309.9090
   5   2.0000     -11.388946      -309.9090
   6   2.0000     -11.375851      -309.5526
   7   2.0000      -1.489421       -40.5292
   8   2.0000      -1.250780       -34.0355
   9   2.0000      -1.208049       -32.8727
  10   2.0000      -1.138154       -30.9707
  11   2.0000      -1.064236       -28.9593
  12   2.0000      -1.037228       -28.2244
  13   2.0000      -0.969593       -26.3840
  14   2.0000      -0.873914       -23.7804
  15   2.0000      -0.848784       -23.0966
  16   2.0000      -0.829726       -22.5780
  17   2.0000      -0.793969       -21.6050
  18   2.0000      -0.771732       -20.9999
  19   2.0000      -0.752176       -20.4677
  20   2.0000      -0.734745       -19.9934
  21   2.0000      -0.728650       -19.8276
  22   2.0000      -0.715861       -19.4796
  23   2.0000      -0.701866       -19.0987
  24   2.0000      -0.675374       -18.3779
  25   2.0000      -0.630397       -17.1540
  26   2.0000      -0.625706       -17.0263
  27   2.0000      -0.623613       -16.9694
  28   0.0000      -0.034532        -0.9397
  29   0.0000      -0.005244        -0.1427
  30   0.0000       0.010571         0.2876
  31   0.0000       0.012731         0.3464
  32   0.0000       0.036552         0.9946

MULLIKEN ATOMIC CHARGES
-----------------------
   0 C :   -0.201900
   1 C :   -0.224397
   2 C :   -0.136931
   3 N :    0.004666
   4 C :   -0.136933
   5 C :   -0.224401
   6 C :   -0.199234
   7 H :    0.168032
   8 H :    0.154220
   9 H :    0.154225
  10 H :    0.168032
  11 H :    0.132510
  12 H :    0.160435
  13 H :    0.160433
  14 H :    0.132512
  15 H :    0.127680
  16 H :    0.157215
  17 H :    0.153096
  18 H :    0.153097
  19 H :    0.149049
  20 H :    0.148592
Sum of atomic charges:    1.0000000

LOEWDIN ATOMIC CHARGES
----------------------
   0 C :    0.072389
   1 C :    0.067855
   2 C :    0.093068
   3 N :    0.545004
   4 C :    0.093070
   5 C :    0.067856
   6 C :    0.165840
   7 H :   -0.007403
   8 H :   -0.006935
   9 H :   -0.006940
  10 H :   -0.007401
  11 H :   -0.013456
  12 H :    0.000725
  13 H :    0.000727
  14 H :   -0.013456
  15 H :   -0.013680
  16 H :   -0.005468
  17 H :   -0.008647
  18 H :   -0.008649
  19 H :   -0.007648
  20 H :   -0.006851

  Mayer bond orders larger than 0.1
B(  0-C ,  1-C ) :   0.9334 B(  0-C ,  5-C ) :   0.9334 B(  0-C , 15-H ) :   0.9773
B(  0-C , 16-H ) :   0.9807 B(  1-C ,  2-C ) :   0.9557 B(  1-C , 11-H ) :   0.9759
B(  1-C , 12-H ) :   0.9738 B(  2-C ,  3-N ) :   0.8572 B(  2-C ,  7-H ) :   0.9792
B(  2-C ,  8-H ) :   0.9696 B(  3-N ,  4-C ) :   0.8572 B(  3-N ,  6-C ) :   0.8992
B(  3-N , 20-H ) :   0.9652 B(  4-C ,  5-C ) :   0.9557 B(  4-C ,  9-H ) :   0.9696
B(  4-C , 10-H ) :   0.9792 B(  5-C , 13-H ) :   0.9738 B(  5-C , 14-H ) :   0.9759
B(  6-C , 17-H ) :   0.9682 B(  6-C , 18-H ) :   0.9682 B(  6-C , 19-H ) :   0.9655

E(0)                                       ...   -289.708874520
E(0)                                       ...   -289.708874520
E(CORR)(strong-pairs)                      ...     -1.310686897
E(CORR)(weak-pairs)                        ...     -0.001357457
E(CORR)(corrected)                         ...     -1.312044354
E(TOT)                                     ...   -291.020918874
E(CCSD(T))                                 ...   -291.072070915
FINAL SINGLE POINT ENERGY      -291.072070915365

DIPOLE MOMENT
-------------
                                X             Y             Z
Electronic contribution:     -0.16008      -0.00001      -0.55319
Nuclear contribution   :     -1.02348       0.00002       0.30832
                        -----------------------------------------
Total Dipole Moment    :     -1.18356       0.00000      -0.24487
                        -----------------------------------------
Magnitude (a.u.)       :      1.20863
Magnitude (Debye)      :      3.07209

Rotational constants in cm-1:     0.141153     0.073507     0.053316
Rotational constants in MHz :  4231.660093  2203.690779  1598.374021

                             ****ORCA TERMINATED NORMALLY****
TOTAL RUN TIME: 0 days 0 hours 12 minutes 39 seconds 757 msec
