                         Program Version 4.1.x  -  STABLE  -
|  1> ! RHF DLPNO-CCSD(T) cc-pVTZ RIJK cc-pVTZ/JK cc-pVTZ/C
|  2> ! KDIIS SOSCF TightSCF TightPNO
|  3>
|  4> %pal nprocs 8 end
|  5>
|  6> %maxcore 8000
|  7>
|  8> %scf maxiter 300
|  9>      shift shift 0.2 erroff 0.1 end
| 10> end
| 11>
| 12> * xyzfile 1 1 N_Me_piperidinium_ax.xyz
| 13>
| 14>
| 15>                          ****END OF INPUT****

CARTESIAN COORDINATES (ANGSTROEM)
---------------------------------
  C      1.814880    0.000030    0.153780
  C      0.960220    1.265940    0.320400
  C     -0.242730    1.260260   -0.618850
  N     -1.091300   -0.000010   -0.445620
  C     -0.242710   -1.260280   -0.618820
  C      0.960280   -1.265910    0.320390
  C     -1.901380   -0.000010    0.823200
  H     -0.907910    2.112160   -0.459790
  H      0.076690    1.258250   -1.665350
  H      0.076700   -1.258300   -1.665320
  H     -0.907850   -2.112190   -0.459720
  H      0.632400    1.377430    1.360630
  H      1.544210    2.162860    0.089950
  H      1.544300   -2.162810    0.089910
  H      0.632490   -1.377420    1.360620
  H      2.282850    0.000020   -0.839370
  H      2.629440    0.000030    0.883140
  H     -2.526360    0.893700    0.837660
  H     -2.526540   -0.893600    0.837540
  H     -1.235530   -0.000150    1.683080
  H     -1.767180   -0.000030   -1.214350

 Total Charge           Charge          ....    1
 Multiplicity           Mult            ....    1
 Number of Electrons    NEL             ....   56
 Basis Dimension        Dim             ....  406

ORBITAL ENERGIES
----------------

  NO   OCC          E(Eh)            E(eV)
   0   2.0000     -15.857340      -431.5002
   1   2.0000     -11.453082      -311.6542
   2   2.0000     -11.453070      -311.6539
   3   2.0000     -11.450092      -311.5728
   4   2.0000     -11.388344      -309.8926
   5   2.0000     -11.388340      -309.8925
   6   2.0000     -11.376016      -309.5571
   7   2.0000      -1.486190       -40.4413
   8   2.0000      -1.248221       -33.9658
   9   2.0000      -1.207231       -32.8504
  10   2.0000      -1.149377       -31.2761
  11   2.0000      -1.056959       -28.7613
  12   2.0000      -1.035709       -28.1831
  13   2.0000      -0.933990       -25.4152
  14   2.0000      -0.920016       -25.0349
  15   2.0000      -0.838253       -22.8100
  16   2.0000      -0.837817       -22.7982
  17   2.0000      -0.795242       -21.6396
  18   2.0000      -0.757991       -20.6260
  19   2.0000      -0.757373       -20.6092
  20   2.0000      -0.728744       -19.8301
  21   2.0000      -0.726829       -19.7780
  22   2.0000      -0.714309       -19.4373
  23   2.0000      -0.709585       -19.3088
  24   2.0000      -0.673704       -18.3324
  25   2.0000      -0.628500       -17.1024
  26   2.0000      -0.625440       -17.0191
  27   2.0000      -0.623329       -16.9617
  28   0.0000      -0.039603        -1.0776
  29   0.0000      -0.004245        -0.1155
  30   0.0000       0.013605         0.3702
  31   0.0000       0.019553         0.5321
  32   0.0000       0.037876         1.0306

MULLIKEN ATOMIC CHARGES
-----------------------
   0 C :   -0.202890
   1 C :   -0.229844
   2 C :   -0.152542
   3 N :    0.003490
   4 C :   -0.152546
   5 C :   -0.229844
   6 C :   -0.213258
   7 H :    0.173963
   8 H :    0.163403
   9 H :    0.163402
  10 H :    0.173968
  11 H :    0.133712
  12 H :    0.164895
  13 H :    0.164892
  14 H :    0.133710
  15 H :    0.125626
  16 H :    0.156543
  17 H :    0.155459
  18 H :    0.155460
  19 H :    0.147339
  20 H :    0.165062
Sum of atomic charges:    1.0000000

LOEWDIN ATOMIC CHARGES
----------------------
   0 C :    0.073817
   1 C :    0.068463
   2 C :    0.097150
   3 N :    0.546760
   4 C :    0.097160
   5 C :    0.068461
   6 C :    0.165939
   7 H :   -0.008173
   8 H :   -0.006978
   9 H :   -0.006980
  10 H :   -0.008178
  11 H :   -0.016020
  12 H :    0.001191
  13 H :    0.001195
  14 H :   -0.016026
  15 H :   -0.013502
  16 H :   -0.005932
  17 H :   -0.008593
  18 H :   -0.008591
  19 H :   -0.014683
  20 H :   -0.006480

  Mayer bond orders larger than 0.1
B(  0-C ,  1-C ) :   0.9350 B(  0-C ,  5-C ) :   0.9350 B(  0-C , 15-H ) :   0.9803
B(  0-C , 16-H ) :   0.9805 B(  1-C ,  2-C ) :   0.9471 B(  1-C , 11-H ) :   0.9740
B(  1-C , 12-H ) :   0.9716 B(  2-C ,  3-N ) :   0.8585 B(  2-C ,  7-H ) :   0.9783
B(  2-C ,  8-H ) :   0.9750 B(  3-N ,  4-C ) :   0.8585 B(  3-N ,  6-C ) :   0.8934
B(  3-N , 20-H ) :   0.9743 B(  4-C ,  5-C ) :   0.9471 B(  4-C ,  9-H ) :   0.9750
B(  4-C , 10-H ) :   0.9783 B(  5-C , 13-H ) :   0.9716 B(  5-C , 14-H ) :   0.9740
B(  6-C , 17-H ) :   0.9682 B(  6-C , 18-H ) :   0.9682 B(  6-C , 19-H ) :   0.9640

E(0)                                       ...   -289.704403740
E(0)                                       ...   -289.704403740
E(CORR)(strong-pairs)                      ...     -1.311629668
E(CORR)(weak-pairs)                        ...     -0.001361663
E(CORR)(corrected)                         ...     -1.312991331
E(TOT)                                     ...   -291.017395071
E(CCSD(T))                                 ...   -291.068677094
FINAL SINGLE POINT ENERGY      -291.068677093740

DIPOLE MOMENT
-------------
                                X             Y             Z
Electronic contribution:     -0.74731       0.00004      -1.30745
Nuclear contribution   :     -0.49012      -0.00007       0.89333
                        -----------------------------------------
Total Dipole Moment    :     -1.23743      -0.00003      -0.41412
                        -----------------------------------------
Magnitude (a.u.)       :      1.30488
Magnitude (Debye)      :      3.31675

Rotational constants in cm-1:     0.117416     0.084214     0.063853
Rotational constants in MHz :  3520.043737  2524.683928  1914.265085

                             ****ORCA TERMINATED NORMALLY****
TOTAL RUN TIME: 0 days 0 hours 12 minutes 25 seconds 62 msec
