                         Program Version 4.1.x  -  STABLE  -
|  1> ! RHF DLPNO-CCSD(T) cc-pVTZ RIJK cc-pVTZ/JK cc-pVTZ/C
|  2> ! KDIIS SOSCF TightSCF TightPNO
|  3>
|  4> %pal nprocs 8 end
|  5>
|  6> %maxcore 8000
|  7>
|  8> %scf maxiter 300
|  9>      shift shift 0.2 erroff 0.1 end
| 10> end
| 11>
| 12> * xyzfile 0 1 N_methylpyrrolidine_ts.xyz
| 13>
| 14>
| 15>                          ****END OF INPUT****

CARTESIAN COORDINATES (ANGSTROEM)
---------------------------------
  C     -1.484360    0.733920   -0.211660
  C     -1.476370   -0.740350    0.222840
  C     -0.053910   -1.197630   -0.134490
  C     -0.058440    1.200960    0.119460
  N      0.724090    0.002920   -0.006740
  C      2.157750    0.000850    0.006980
  H     -2.267840   -1.346230   -0.279040
  H     -1.627080   -0.802000    1.327610
  H      0.001560   -1.547040   -1.192150
  H      0.318480   -1.995270    0.550240
  H      0.013100    1.560770    1.172580
  H      0.294810    1.995830   -0.578390
  H      2.514490   -0.105870    1.056230
  H      2.548320   -0.846720   -0.600600
  H      2.553800    0.950390   -0.418770
  H     -2.270430    1.335040    0.304240
  H     -1.655810    0.794130   -1.313510

 Total Charge           Charge          ....    0
 Multiplicity           Mult            ....    1
 Number of Electrons    NEL             ....   48
 Basis Dimension        Dim             ....  334

ORBITAL ENERGIES
----------------

  NO   OCC          E(Eh)            E(eV)
   0   2.0000     -15.516307      -422.2202
   1   2.0000     -11.245868      -306.0156
   2   2.0000     -11.245743      -306.0122
   3   2.0000     -11.245605      -306.0085
   4   2.0000     -11.223960      -305.4195
   5   2.0000     -11.223358      -305.4031
   6   2.0000      -1.229965       -33.4690
   7   2.0000      -1.045512       -28.4498
   8   2.0000      -0.972723       -26.4691
   9   2.0000      -0.906664       -24.6716
  10   2.0000      -0.787105       -21.4182
  11   2.0000      -0.759383       -20.6639
  12   2.0000      -0.664075       -18.0704
  13   2.0000      -0.651196       -17.7200
  14   2.0000      -0.594104       -16.1664
  15   2.0000      -0.572660       -15.5829
  16   2.0000      -0.569839       -15.5061
  17   2.0000      -0.518066       -14.0973
  18   2.0000      -0.511000       -13.9050
  19   2.0000      -0.500510       -13.6196
  20   2.0000      -0.470258       -12.7964
  21   2.0000      -0.469818       -12.7844
  22   2.0000      -0.458585       -12.4787
  23   2.0000      -0.308977        -8.4077
  24   0.0000       0.134713         3.6657
  25   0.0000       0.159456         4.3390
  26   0.0000       0.172546         4.6952
  27   0.0000       0.178398         4.8545
  28   0.0000       0.202847         5.5198

MULLIKEN ATOMIC CHARGES
-----------------------
   0 C :   -0.178705
   1 C :   -0.182379
   2 C :   -0.064744
   3 C :   -0.062892
   4 N :   -0.188041
   5 C :   -0.165563
   6 H :    0.097524
   7 H :    0.083952
   8 H :    0.057356
   9 H :    0.068860
  10 H :    0.053768
  11 H :    0.070005
  12 H :    0.071023
  13 H :    0.081140
  14 H :    0.077869
  15 H :    0.097108
  16 H :    0.083716
Sum of atomic charges:   -0.0000000

LOEWDIN ATOMIC CHARGES
----------------------
   0 C :    0.052267
   1 C :    0.051915
   2 C :   -0.028582
   3 C :   -0.028071
   4 N :    0.256843
   5 C :    0.021152
   6 H :   -0.022926
   7 H :   -0.020179
   8 H :   -0.039622
   9 H :   -0.031616
  10 H :   -0.041026
  11 H :   -0.031917
  12 H :   -0.042177
  13 H :   -0.025985
  14 H :   -0.026916
  15 H :   -0.022898
  16 H :   -0.020260

  Mayer bond orders larger than 0.1
B(  0-C ,  1-C ) :   0.9499 B(  0-C ,  3-C ) :   0.9584 B(  0-C , 15-H ) :   0.9931
B(  0-C , 16-H ) :   0.9865 B(  1-C ,  2-C ) :   0.9598 B(  1-C ,  6-H ) :   0.9931
B(  1-C ,  7-H ) :   0.9861 B(  2-C ,  4-N ) :   1.0124 B(  2-C ,  8-H ) :   0.9721
B(  2-C ,  9-H ) :   0.9764 B(  3-C ,  4-N ) :   1.0167 B(  3-C , 10-H ) :   0.9716
B(  3-C , 11-H ) :   0.9764 B(  4-N ,  5-C ) :   0.9983 B(  5-C , 12-H ) :   0.9714
B(  5-C , 13-H ) :   0.9787 B(  5-C , 14-H ) :   0.9785

E(0)                                       ...   -250.247242442
E(0)                                       ...   -250.247242442
E(CORR)(strong-pairs)                      ...     -1.128458125
E(CORR)(weak-pairs)                        ...     -0.001094830
E(CORR)(corrected)                         ...     -1.129552955
E(TOT)                                     ...   -251.376795397
E(CCSD(T))                                 ...   -251.421868058
FINAL SINGLE POINT ENERGY      -251.421868058363

DIPOLE MOMENT
-------------
                                X             Y             Z
Electronic contribution:     -0.53205       0.00798      -0.06250
Nuclear contribution   :      0.45274      -0.00735       0.03006
                        -----------------------------------------
Total Dipole Moment    :     -0.07931       0.00063      -0.03244
                        -----------------------------------------
Magnitude (a.u.)       :      0.08569
Magnitude (Debye)      :      0.21781

Rotational constants in cm-1:     0.217827     0.104177     0.077140
Rotational constants in MHz :  6530.286624  3123.151653  2312.611334

                             ****ORCA TERMINATED NORMALLY****
TOTAL RUN TIME: 0 days 0 hours 6 minutes 53 seconds 509 msec
