                         Program Version 4.1.x  -  STABLE  -
|  1> ! RHF DLPNO-CCSD(T) cc-pVTZ RIJK cc-pVTZ/JK cc-pVTZ/C
|  2> ! KDIIS SOSCF TightSCF TightPNO
|  3>
|  4> %pal nprocs 8 end
|  5>
|  6> %maxcore 8000
|  7>
|  8> %scf maxiter 300
|  9>      shift shift 0.2 erroff 0.1 end
| 10> end
| 11>
| 12> * xyzfile 0 1 N_me_piperidine_ch_NI.xyz
| 13>
| 14>
| 15>                          ****END OF INPUT****

CARTESIAN COORDINATES (ANGSTROEM)
---------------------------------
  C     -1.867800   -0.000100   -0.086200
  C     -1.091300    1.254400    0.305900
  C     -1.091100   -1.254600    0.305800
  C      0.280700    1.250500   -0.363400
  C      0.280900   -1.250500   -0.363400
  N      0.963200    0.000300   -0.138900
  C      2.336700   -0.000000    0.294500
  H     -2.028800   -0.000100   -1.169200
  H     -2.853000   -0.000200    0.381100
  H     -0.959000    1.271000    1.390200
  H     -1.642000    2.153000    0.021300
  H     -1.641700   -2.153200    0.021200
  H     -0.958800   -1.271200    1.390100
  H      0.899700    2.055700    0.030400
  H      0.138300    1.447000   -1.440100
  H      0.138700   -1.446900   -1.440100
  H      0.900100   -2.055400    0.030500
  H      2.859300   -0.874300   -0.097100
  H      2.858000    0.877000   -0.092500
  H      2.459100   -0.002800    1.386000

 Total Charge           Charge          ....    0
 Multiplicity           Mult            ....    1
 Number of Electrons    NEL             ....   56
 Basis Dimension        Dim             ....  392

ORBITAL ENERGIES
----------------

  NO   OCC          E(Eh)            E(eV)
   0   2.0000     -15.519758      -422.3141
   1   2.0000     -11.240616      -305.8727
   2   2.0000     -11.240588      -305.8720
   3   2.0000     -11.237965      -305.8006
   4   2.0000     -11.211238      -305.0733
   5   2.0000     -11.208625      -305.0022
   6   2.0000     -11.208541      -304.9999
   7   2.0000      -1.219605       -33.1871
   8   2.0000      -1.064994       -28.9799
   9   2.0000      -1.013564       -27.5805
  10   2.0000      -0.934959       -25.4415
  11   2.0000      -0.846473       -23.0337
  12   2.0000      -0.828020       -22.5316
  13   2.0000      -0.745172       -20.2772
  14   2.0000      -0.656303       -17.8589
  15   2.0000      -0.626225       -17.0405
  16   2.0000      -0.618358       -16.8264
  17   2.0000      -0.599528       -16.3140
  18   2.0000      -0.573033       -15.5930
  19   2.0000      -0.557598       -15.1730
  20   2.0000      -0.538680       -14.6582
  21   2.0000      -0.530103       -14.4248
  22   2.0000      -0.500153       -13.6098
  23   2.0000      -0.481024       -13.0893
  24   2.0000      -0.466459       -12.6930
  25   2.0000      -0.445755       -12.1296
  26   2.0000      -0.445108       -12.1120
  27   2.0000      -0.310630        -8.4527
  28   0.0000       0.138891         3.7794
  29   0.0000       0.161438         4.3929
  30   0.0000       0.166107         4.5200
  31   0.0000       0.167726         4.5641
  32   0.0000       0.200912         5.4671

MULLIKEN ATOMIC CHARGES
-----------------------
   0 C :   -0.188146
   1 C :   -0.180595
   2 C :   -0.180668
   3 C :   -0.081831
   4 C :   -0.081762
   5 N :   -0.224186
   6 C :   -0.189152
   7 H :    0.083760
   8 H :    0.108501
   9 H :    0.083250
  10 H :    0.100417
  11 H :    0.100465
  12 H :    0.083257
  13 H :    0.095141
  14 H :    0.068279
  15 H :    0.068393
  16 H :    0.095198
  17 H :    0.081996
  18 H :    0.082105
  19 H :    0.075577
Sum of atomic charges:    0.0000000

LOEWDIN ATOMIC CHARGES
----------------------
   0 C :    0.054956
   1 C :    0.054579
   2 C :    0.054598
   3 C :   -0.019450
   4 C :   -0.019062
   5 N :    0.266289
   6 C :    0.030759
   7 H :   -0.028150
   8 H :   -0.029772
   9 H :   -0.029699
  10 H :   -0.029735
  11 H :   -0.029757
  12 H :   -0.029689
  13 H :   -0.027418
  14 H :   -0.038620
  15 H :   -0.038609
  16 H :   -0.027439
  17 H :   -0.034220
  18 H :   -0.034186
  19 H :   -0.045377

  Mayer bond orders larger than 0.1
B(  0-C ,  1-C ) :   0.9523 B(  0-C ,  2-C ) :   0.9523 B(  0-C ,  7-H ) :   0.9836
B(  0-C ,  8-H ) :   0.9964 B(  1-C ,  3-C ) :   0.9462 B(  1-C ,  9-H ) :   0.9833
B(  1-C , 10-H ) :   0.9937 B(  2-C ,  4-C ) :   0.9462 B(  2-C , 11-H ) :   0.9937
B(  2-C , 12-H ) :   0.9833 B(  3-C ,  5-N ) :   0.9981 B(  3-C , 13-H ) :   0.9936
B(  3-C , 14-H ) :   0.9804 B(  4-C ,  5-N ) :   0.9978 B(  4-C , 15-H ) :   0.9804
B(  4-C , 16-H ) :   0.9936 B(  5-N ,  6-C ) :   1.0117 B(  6-C , 17-H ) :   0.9818
B(  6-C , 18-H ) :   0.9819 B(  6-C , 19-H ) :   0.9655

E(0)                                       ...   -289.303032228
E(0)                                       ...   -289.303032228
E(CORR)(strong-pairs)                      ...     -1.312849472
E(CORR)(weak-pairs)                        ...     -0.001370484
E(CORR)(corrected)                         ...     -1.314219956
E(TOT)                                     ...   -290.617252184
E(CCSD(T))                                 ...   -290.669402012
FINAL SINGLE POINT ENERGY      -290.669402012462

DIPOLE MOMENT
-------------
                                X             Y             Z
Electronic contribution:     -0.16188       0.00021      -0.38725
Nuclear contribution   :      0.18594      -0.00040       0.43615
                        -----------------------------------------
Total Dipole Moment    :      0.02407      -0.00018       0.04890
                        -----------------------------------------
Magnitude (a.u.)       :      0.05450
Magnitude (Debye)      :      0.13853

Rotational constants in cm-1:     0.139748     0.079056     0.056736
Rotational constants in MHz :  4189.552539  2370.030840  1700.905144

                             ****ORCA TERMINATED NORMALLY****
TOTAL RUN TIME: 0 days 0 hours 11 minutes 27 seconds 197 msec
