                         Program Version 4.1.x  -  STABLE  -
|  1> ! RHF DLPNO-CCSD(T) cc-pVTZ RIJK cc-pVTZ/JK cc-pVTZ/C
|  2> ! KDIIS SOSCF TightSCF TightPNO
|  3>
|  4> %pal nprocs 8 end
|  5>
|  6> %maxcore 8000
|  7>
|  8> %scf maxiter 300
|  9>      shift shift 0.2 erroff 0.1 end
| 10> end
| 11>
| 12> * xyzfile 0 1 N_me_piperidine_ch_eq.xyz
| 13>
| 14>
| 15>                          ****END OF INPUT****

CARTESIAN COORDINATES (ANGSTROEM)
---------------------------------
  C      1.876800    0.000000    0.255900
  C      1.146800    1.247100   -0.228500
  C      1.146800   -1.247100   -0.228500
  C     -0.316000    1.194900    0.182600
  C     -0.316000   -1.194900    0.182600
  N     -0.960900    0.000000   -0.344000
  C     -2.369900   -0.000000    0.001400
  H      1.900400   -0.000000    1.349300
  H      2.912000   -0.000000   -0.086600
  H      1.200300    1.305200   -1.317200
  H      1.608400    2.149000    0.175900
  H      1.608400   -2.149000    0.175900
  H      1.200300   -1.305200   -1.317200
  H     -0.851700    2.065500   -0.198400
  H     -0.388200    1.222000    1.286200
  H     -0.388200   -1.222000    1.286200
  H     -0.851700   -2.065500   -0.198400
  H     -2.533700    0.000000    1.091000
  H     -2.850600    0.883600   -0.415900
  H     -2.850600   -0.883600   -0.415900

 Total Charge           Charge          ....    0
 Multiplicity           Mult            ....    1
 Number of Electrons    NEL             ....   56
 Basis Dimension        Dim             ....  392

ORBITAL ENERGIES
----------------

  NO   OCC          E(Eh)            E(eV)
   0   2.0000     -15.538942      -422.8361
   1   2.0000     -11.238769      -305.8225
   2   2.0000     -11.238755      -305.8221
   3   2.0000     -11.235224      -305.7260
   4   2.0000     -11.212659      -305.1120
   5   2.0000     -11.210932      -305.0650
   6   2.0000     -11.210809      -305.0616
   7   2.0000      -1.232976       -33.5510
   8   2.0000      -1.070620       -29.1331
   9   2.0000      -1.012529       -27.5523
  10   2.0000      -0.930927       -25.3318
  11   2.0000      -0.844797       -22.9881
  12   2.0000      -0.829902       -22.5828
  13   2.0000      -0.754310       -20.5258
  14   2.0000      -0.658237       -17.9116
  15   2.0000      -0.623578       -16.9684
  16   2.0000      -0.622557       -16.9406
  17   2.0000      -0.608038       -16.5455
  18   2.0000      -0.576728       -15.6936
  19   2.0000      -0.551192       -14.9987
  20   2.0000      -0.533529       -14.5181
  21   2.0000      -0.529855       -14.4181
  22   2.0000      -0.499025       -13.5792
  23   2.0000      -0.485436       -13.2094
  24   2.0000      -0.463316       -12.6075
  25   2.0000      -0.440650       -11.9907
  26   2.0000      -0.439104       -11.9486
  27   2.0000      -0.354685        -9.6515
  28   0.0000       0.143963         3.9174
  29   0.0000       0.158930         4.3247
  30   0.0000       0.165399         4.5007
  31   0.0000       0.167410         4.5555
  32   0.0000       0.197327         5.3696

MULLIKEN ATOMIC CHARGES
-----------------------
   0 C :   -0.194124
   1 C :   -0.185912
   2 C :   -0.185912
   3 C :   -0.078278
   4 C :   -0.078278
   5 N :   -0.228263
   6 C :   -0.188382
   7 H :    0.089103
   8 H :    0.108319
   9 H :    0.090634
  10 H :    0.103580
  11 H :    0.103580
  12 H :    0.090634
  13 H :    0.096288
  14 H :    0.058351
  15 H :    0.058351
  16 H :    0.096288
  17 H :    0.055062
  18 H :    0.094481
  19 H :    0.094481
Sum of atomic charges:   -0.0000000

LOEWDIN ATOMIC CHARGES
----------------------
   0 C :    0.055228
   1 C :    0.057418
   2 C :    0.057418
   3 C :   -0.019790
   4 C :   -0.019790
   5 N :    0.248127
   6 C :    0.036561
   7 H :   -0.027880
   8 H :   -0.028881
   9 H :   -0.025506
  10 H :   -0.027575
  11 H :   -0.027575
  12 H :   -0.025506
  13 H :   -0.028642
  14 H :   -0.041031
  15 H :   -0.041031
  16 H :   -0.028642
  17 H :   -0.046406
  18 H :   -0.033248
  19 H :   -0.033248

  Mayer bond orders larger than 0.1
B(  0-C ,  1-C ) :   0.9491 B(  0-C ,  2-C ) :   0.9491 B(  0-C ,  7-H ) :   0.9860
B(  0-C ,  8-H ) :   0.9948 B(  1-C ,  3-C ) :   0.9614 B(  1-C ,  9-H ) :   0.9816
B(  1-C , 10-H ) :   0.9943 B(  2-C ,  4-C ) :   0.9614 B(  2-C , 11-H ) :   0.9943
B(  2-C , 12-H ) :   0.9816 B(  3-C ,  5-N ) :   0.9738 B(  3-C , 13-H ) :   0.9917
B(  3-C , 14-H ) :   0.9750 B(  4-C ,  5-N ) :   0.9738 B(  4-C , 15-H ) :   0.9750
B(  4-C , 16-H ) :   0.9917 B(  5-N ,  6-C ) :   0.9877 B(  6-C , 17-H ) :   0.9666
B(  6-C , 18-H ) :   0.9859 B(  6-C , 19-H ) :   0.9859

E(0)                                       ...   -289.317367511
E(0)                                       ...   -289.317367511
E(CORR)(strong-pairs)                      ...     -1.315008909
E(CORR)(weak-pairs)                        ...     -0.001382866
E(CORR)(corrected)                         ...     -1.316391776
E(TOT)                                     ...   -290.633759287
E(CCSD(T))                                 ...   -290.686224985
FINAL SINGLE POINT ENERGY      -290.686224984609

DIPOLE MOMENT
-------------
                                X             Y             Z
Electronic contribution:      0.33029      -0.00000      -1.25569
Nuclear contribution   :     -0.30805      -0.00000       1.49831
                        -----------------------------------------
Total Dipole Moment    :      0.02224      -0.00000       0.24262
                        -----------------------------------------
Magnitude (a.u.)       :      0.24364
Magnitude (Debye)      :      0.61928

Rotational constants in cm-1:     0.149947     0.077878     0.056340
Rotational constants in MHz :  4495.283357  2334.728367  1689.019788

                             ****ORCA TERMINATED NORMALLY****
TOTAL RUN TIME: 0 days 0 hours 11 minutes 48 seconds 806 msec
