                         Program Version 4.1.x  -  STABLE  -
|  1> ! RHF DLPNO-CCSD(T) cc-pVTZ RIJK cc-pVTZ/JK cc-pVTZ/C
|  2> ! KDIIS SOSCF TightSCF TightPNO
|  3>
|  4> %pal nprocs 8 end
|  5>
|  6> %maxcore 8000
|  7>
|  8> %scf maxiter 300
|  9>      shift shift 0.2 erroff 0.1 end
| 10> end
| 11>
| 12> * xyzfile 0 1 N_methylformamidine_cis.xyz
| 13>
| 14>
| 15>                          ****END OF INPUT****

CARTESIAN COORDINATES (ANGSTROEM)
---------------------------------
  C     -1.440710   -0.434720    0.000010
  N     -0.624480    0.771310   -0.000020
  C      0.645970    0.625640    0.000010
  N      1.370810   -0.545220   -0.000010
  H      1.270890    1.520210    0.000040
  H      2.377090   -0.524310    0.000030
  H      0.923090   -1.447130   -0.000010
  H     -2.496860   -0.154740   -0.000090
  H     -1.264960   -1.061110   -0.890570
  H     -1.265100   -1.060980    0.890710

 Total Charge           Charge          ....    0
 Multiplicity           Mult            ....    1
 Number of Electrons    NEL             ....   32
 Basis Dimension        Dim             ....  204

ORBITAL ENERGIES
----------------

  NO   OCC          E(Eh)            E(eV)
   0   2.0000     -15.577867      -423.8953
   1   2.0000     -15.520037      -422.3217
   2   2.0000     -11.304720      -307.6171
   3   2.0000     -11.236852      -305.7703
   4   2.0000      -1.254590       -34.1391
   5   2.0000      -1.150452       -31.3054
   6   2.0000      -0.936880       -25.4938
   7   2.0000      -0.795604       -21.6495
   8   2.0000      -0.722768       -19.6675
   9   2.0000      -0.658738       -17.9252
  10   2.0000      -0.592032       -16.1100
  11   2.0000      -0.585361       -15.9285
  12   2.0000      -0.528280       -14.3752
  13   2.0000      -0.497718       -13.5436
  14   2.0000      -0.392982       -10.6936
  15   2.0000      -0.349113        -9.4999
  16   0.0000       0.129022         3.5109
  17   0.0000       0.159659         4.3446
  18   0.0000       0.183817         5.0019
  19   0.0000       0.185537         5.0487
  20   0.0000       0.217967         5.9312

MULLIKEN ATOMIC CHARGES
-----------------------
   0 C :   -0.164066
   1 N :   -0.327073
   2 C :    0.081155
   3 N :   -0.347860
   4 H :    0.143974
   5 H :    0.187017
   6 H :    0.197653
   7 H :    0.105413
   8 H :    0.061884
   9 H :    0.061901
Sum of atomic charges:    0.0000000

LOEWDIN ATOMIC CHARGES
----------------------
   0 C :    0.006154
   1 N :    0.111267
   2 C :   -0.194371
   3 N :    0.405619
   4 H :   -0.029277
   5 H :   -0.086016
   6 H :   -0.090303
   7 H :   -0.031844
   8 H :   -0.045618
   9 H :   -0.045612

  Mayer bond orders larger than 0.1
B(  0-C ,  1-N ) :   0.9925 B(  0-C ,  7-H ) :   0.9899 B(  0-C ,  8-H ) :   0.9631
B(  0-C ,  9-H ) :   0.9631 B(  1-N ,  2-C ) :   1.9711 B(  2-C ,  3-N ) :   1.1223
B(  2-C ,  4-H ) :   0.9631 B(  3-N ,  5-H ) :   0.9670 B(  3-N ,  6-H ) :   0.9593

E(0)                                       ...   -188.174956933
E(0)                                       ...   -188.174956933
E(CORR)(strong-pairs)                      ...     -0.783214888
E(CORR)(weak-pairs)                        ...     -0.000498807
E(CORR)(corrected)                         ...     -0.783713695
E(TOT)                                     ...   -188.958670628
E(CCSD(T))                                 ...   -188.991206927
FINAL SINGLE POINT ENERGY      -188.991206927266

DIPOLE MOMENT
-------------
                                X             Y             Z
Electronic contribution:      1.48165       1.92807      -0.00005
Nuclear contribution   :     -0.46713      -2.82131       0.00011
                        -----------------------------------------
Total Dipole Moment    :      1.01452      -0.89324       0.00006
                        -----------------------------------------
Magnitude (a.u.)       :      1.35171
Magnitude (Debye)      :      3.43578

Rotational constants in cm-1:     0.605474     0.207799     0.159383
Rotational constants in MHz : 18151.656269  6229.665163  4778.171769

                             ****ORCA TERMINATED NORMALLY****
TOTAL RUN TIME: 0 days 0 hours 2 minutes 30 seconds 170 msec
