                         Program Version 4.1.x  -  STABLE  -
|  1> ! RHF DLPNO-CCSD(T) cc-pVTZ RIJK cc-pVTZ/JK cc-pVTZ/C
|  2> ! KDIIS SOSCF TightSCF TightPNO
|  3>
|  4> %pal nprocs 8 end
|  5>
|  6> %maxcore 8000
|  7>
|  8> %scf maxiter 300
|  9>      shift shift 0.2 erroff 0.1 end
| 10> end
| 11>
| 12> * xyzfile 0 1 N_Me_Acetamide_ts.xyz
| 13>
| 14>
| 15>                          ****END OF INPUT****

CARTESIAN COORDINATES (ANGSTROEM)
---------------------------------
  C     -1.367900   -1.026800   -0.087700
  C     -0.523900    0.221100    0.087800
  N      0.752600    0.022000    0.566500
  C      1.853900   -0.187800   -0.340400
  O     -0.953900    1.318900   -0.174500
  H     -0.883500   -1.718100   -0.814700
  H     -1.483700   -1.550400    0.887700
  H     -2.383600   -0.774600   -0.471700
  H      0.885000    0.034600    1.579600
  H      1.528700   -0.149100   -1.405600
  H      2.621900    0.598600   -0.166900
  H      2.305300   -1.185100   -0.135600

 Total Charge           Charge          ....    0
 Multiplicity           Mult            ....    1
 Number of Electrons    NEL             ....   40
 Basis Dimension        Dim             ....  248

ORBITAL ENERGIES
----------------

  NO   OCC          E(Eh)            E(eV)
   0   2.0000     -20.539817      -558.9168
   1   2.0000     -15.543749      -422.9669
   2   2.0000     -11.348858      -308.8181
   3   2.0000     -11.271021      -306.7001
   4   2.0000     -11.238030      -305.8024
   5   2.0000      -1.394006       -37.9328
   6   2.0000      -1.212391       -32.9908
   7   2.0000      -0.998619       -27.1738
   8   2.0000      -0.925650       -25.1882
   9   2.0000      -0.772534       -21.0217
  10   2.0000      -0.680302       -18.5120
  11   2.0000      -0.644608       -17.5407
  12   2.0000      -0.640963       -17.4415
  13   2.0000      -0.584993       -15.9185
  14   2.0000      -0.576852       -15.6969
  15   2.0000      -0.559819       -15.2335
  16   2.0000      -0.538979       -14.6664
  17   2.0000      -0.488081       -13.2814
  18   2.0000      -0.429507       -11.6875
  19   2.0000      -0.371195       -10.1007
  20   0.0000       0.120760         3.2861
  21   0.0000       0.151290         4.1168
  22   0.0000       0.161518         4.3951
  23   0.0000       0.178184         4.8486
  24   0.0000       0.208990         5.6869

MULLIKEN ATOMIC CHARGES
-----------------------
   0 C :   -0.260753
   1 C :    0.293515
   2 N :   -0.288805
   3 C :   -0.146578
   4 O :   -0.338213
   5 H :    0.092705
   6 H :    0.088319
   7 H :    0.111628
   8 H :    0.174499
   9 H :    0.095851
  10 H :    0.097560
  11 H :    0.080273
Sum of atomic charges:   -0.0000000

LOEWDIN ATOMIC CHARGES
----------------------
   0 C :    0.088701
   1 C :   -0.384863
   2 N :    0.316517
   3 C :    0.041132
   4 O :    0.147005
   5 H :   -0.015091
   6 H :   -0.015630
   7 H :   -0.011884
   8 H :   -0.087842
   9 H :   -0.015941
  10 H :   -0.027698
  11 H :   -0.034405

  Mayer bond orders larger than 0.1
B(  0-C ,  1-C ) :   0.9674 B(  0-C ,  5-H ) :   0.9642 B(  0-C ,  6-H ) :   0.9643
B(  0-C ,  7-H ) :   0.9785 B(  1-C ,  2-N ) :   1.0151 B(  1-C ,  4-O ) :   2.1528
B(  2-N ,  3-C ) :   0.9368 B(  2-N ,  8-H ) :   0.9785 B(  3-C ,  9-H ) :   0.9774
B(  3-C , 10-H ) :   0.9831 B(  3-C , 11-H ) :   0.9783

E(0)                                       ...   -247.054819800
E(0)                                       ...   -247.054819800
E(CORR)(strong-pairs)                      ...     -0.981073557
E(CORR)(weak-pairs)                        ...     -0.000722121
E(CORR)(corrected)                         ...     -0.981795678
E(TOT)                                     ...   -248.036615478
E(CCSD(T))                                 ...   -248.075355027
FINAL SINGLE POINT ENERGY      -248.075355027456

DIPOLE MOMENT
-------------
                                X             Y             Z
Electronic contribution:     -2.06485       3.71132       0.87488
Nuclear contribution   :      2.65110      -4.85424      -0.54133
                        -----------------------------------------
Total Dipole Moment    :      0.58624      -1.14292       0.33355
                        -----------------------------------------
Magnitude (a.u.)       :      1.32710
Magnitude (Debye)      :      3.37323

Rotational constants in cm-1:     0.273927     0.133094     0.103641
Rotational constants in MHz :  8212.124671  3990.046857  3107.072430

                             ****ORCA TERMINATED NORMALLY****
TOTAL RUN TIME: 0 days 0 hours 2 minutes 37 seconds 454 msec
