                         Program Version 4.1.x  -  STABLE  -
|  1> ! RHF DLPNO-CCSD(T) cc-pVTZ RIJK cc-pVTZ/JK cc-pVTZ/C
|  2> ! KDIIS SOSCF TightSCF TightPNO
|  3>
|  4> %pal nprocs 8 end
|  5>
|  6> %maxcore 8000
|  7>
|  8> %scf maxiter 300
|  9>      shift shift 0.2 erroff 0.1 end
| 10> end
| 11>
| 12> * xyzfile 0 1 N_methylformamide_E.xyz
| 13>
| 14>
| 15>                          ****END OF INPUT****

CARTESIAN COORDINATES (ANGSTROEM)
---------------------------------
  C      1.753160    0.116030    0.000960
  N      0.397780   -0.407400   -0.000340
  C     -0.732260    0.348810    0.000240
  O     -1.871380   -0.095240   -0.000020
  H      0.255270   -1.410360   -0.001570
  H      2.308210   -0.210000   -0.885460
  H      1.713540    1.208370   -0.012320
  H      2.304200   -0.199020    0.893060
  H     -0.520090    1.435670    0.001600

 Total Charge           Charge          ....    0
 Multiplicity           Mult            ....    1
 Number of Electrons    NEL             ....   32
 Basis Dimension        Dim             ....  190

ORBITAL ENERGIES
----------------

  NO   OCC          E(Eh)            E(eV)
   0   2.0000     -20.518287      -558.3310
   1   2.0000     -15.592163      -424.2843
   2   2.0000     -11.349198      -308.8274
   3   2.0000     -11.282498      -307.0124
   4   2.0000      -1.372242       -37.3406
   5   2.0000      -1.235319       -33.6147
   6   2.0000      -0.963928       -26.2298
   7   2.0000      -0.843446       -22.9513
   8   2.0000      -0.685755       -18.6603
   9   2.0000      -0.673390       -18.3239
  10   2.0000      -0.631761       -17.1911
  11   2.0000      -0.589807       -16.0495
  12   2.0000      -0.569528       -15.4976
  13   2.0000      -0.538558       -14.6549
  14   2.0000      -0.427949       -11.6451
  15   2.0000      -0.393618       -10.7109
  16   0.0000       0.129436         3.5221
  17   0.0000       0.154495         4.2040
  18   0.0000       0.180591         4.9141
  19   0.0000       0.190418         5.1815
  20   0.0000       0.203304         5.5322

MULLIKEN ATOMIC CHARGES
-----------------------
   0 C :   -0.134386
   1 N :   -0.205572
   2 C :    0.245091
   3 O :   -0.435890
   4 H :    0.187578
   5 H :    0.093628
   6 H :    0.089132
   7 H :    0.093983
   8 H :    0.066437
Sum of atomic charges:    0.0000000

LOEWDIN ATOMIC CHARGES
----------------------
   0 C :    0.072012
   1 N :    0.366366
   2 C :   -0.288964
   3 O :    0.056289
   4 H :   -0.073841
   5 H :   -0.030562
   6 H :   -0.024671
   7 H :   -0.031126
   8 H :   -0.045504

  Mayer bond orders larger than 0.1
B(  0-C ,  1-N ) :   0.9592 B(  0-C ,  5-H ) :   0.9711 B(  0-C ,  6-H ) :   0.9808
B(  0-C ,  7-H ) :   0.9708 B(  1-N ,  2-C ) :   1.2033 B(  1-N ,  4-H ) :   0.9469
B(  2-C ,  3-O ) :   2.0369 B(  2-C ,  8-H ) :   0.9557

E(0)                                       ...   -208.038917036
E(0)                                       ...   -208.038917036
E(CORR)(strong-pairs)                      ...     -0.798228652
E(CORR)(weak-pairs)                        ...     -0.000487891
E(CORR)(corrected)                         ...     -0.798716543
E(TOT)                                     ...   -208.837633579
E(CCSD(T))                                 ...   -208.869763773
FINAL SINGLE POINT ENERGY      -208.869763773409

DIPOLE MOMENT
-------------
                                X             Y             Z
Electronic contribution:     -4.35988      -0.66203       0.00395
Nuclear contribution   :      6.13922       0.83509      -0.00477
                        -----------------------------------------
Total Dipole Moment    :      1.77935       0.17306      -0.00082
                        -----------------------------------------
Magnitude (a.u.)       :      1.78774
Magnitude (Debye)      :      4.54408

Rotational constants in cm-1:     1.489859     0.144566     0.135148
Rotational constants in MHz : 44664.855106  4333.972332  4051.627652

                             ****ORCA TERMINATED NORMALLY****
TOTAL RUN TIME: 0 days 0 hours 1 minutes 57 seconds 99 msec
