                         Program Version 4.1.x  -  STABLE  -
|  1> ! RHF DLPNO-CCSD(T) cc-pVTZ RIJK cc-pVTZ/JK cc-pVTZ/C
|  2> ! KDIIS SOSCF TightSCF TightPNO
|  3>
|  4> %pal nprocs 8 end
|  5>
|  6> %maxcore 8000
|  7>
|  8> %scf maxiter 300
|  9>      shift shift 0.2 erroff 0.1 end
| 10> end
| 11>
| 12> * xyzfile 0 1 N_methylformamide_Z.xyz
| 13>
| 14>
| 15>                          ****END OF INPUT****

CARTESIAN COORDINATES (ANGSTROEM)
---------------------------------
  C     -1.435440   -0.440610    0.000140
  N     -0.472750    0.654060   -0.000610
  C      0.867870    0.435580    0.000150
  O      1.389530   -0.670920    0.000000
  H     -0.801520    1.608400    0.002230
  H     -2.443650   -0.023020   -0.016120
  H     -1.295270   -1.078320   -0.877870
  H     -1.316740   -1.061060    0.893810
  H      1.455610    1.373090    0.000430

 Total Charge           Charge          ....    0
 Multiplicity           Mult            ....    1
 Number of Electrons    NEL             ....   32
 Basis Dimension        Dim             ....  190

ORBITAL ENERGIES
----------------

  NO   OCC          E(Eh)            E(eV)
   0   2.0000     -20.519316      -558.3590
   1   2.0000     -15.591567      -424.2681
   2   2.0000     -11.346951      -308.7662
   3   2.0000     -11.267112      -306.5937
   4   2.0000      -1.373157       -37.3655
   5   2.0000      -1.230724       -33.4897
   6   2.0000      -0.964670       -26.2500
   7   2.0000      -0.806740       -21.9525
   8   2.0000      -0.739773       -20.1302
   9   2.0000      -0.638849       -17.3840
  10   2.0000      -0.623581       -16.9685
  11   2.0000      -0.589806       -16.0495
  12   2.0000      -0.557264       -15.1639
  13   2.0000      -0.527063       -14.3421
  14   2.0000      -0.428463       -11.6591
  15   2.0000      -0.395310       -10.7569
  16   0.0000       0.127646         3.4734
  17   0.0000       0.156206         4.2506
  18   0.0000       0.179233         4.8772
  19   0.0000       0.187655         5.1063
  20   0.0000       0.214117         5.8264

MULLIKEN ATOMIC CHARGES
-----------------------
   0 C :   -0.140573
   1 N :   -0.222420
   2 C :    0.251780
   3 O :   -0.445619
   4 H :    0.182178
   5 H :    0.090183
   6 H :    0.103697
   7 H :    0.102357
   8 H :    0.078418
Sum of atomic charges:   -0.0000000

LOEWDIN ATOMIC CHARGES
----------------------
   0 C :    0.080086
   1 N :    0.359739
   2 C :   -0.289149
   3 O :    0.059241
   4 H :   -0.084725
   5 H :   -0.029871
   6 H :   -0.025722
   7 H :   -0.026194
   8 H :   -0.043405

  Mayer bond orders larger than 0.1
B(  0-C ,  1-N ) :   0.9304 B(  0-C ,  5-H ) :   0.9844 B(  0-C ,  6-H ) :   0.9696
B(  0-C ,  7-H ) :   0.9699 B(  1-N ,  2-C ) :   1.2066 B(  1-N ,  4-H ) :   0.9737
B(  2-C ,  3-O ) :   1.9898 B(  2-C ,  8-H ) :   0.9665

E(0)                                       ...   -208.040464300
E(0)                                       ...   -208.040464300
E(CORR)(strong-pairs)                      ...     -0.798381867
E(CORR)(weak-pairs)                        ...     -0.000487381
E(CORR)(corrected)                         ...     -0.798869248
E(TOT)                                     ...   -208.839333548
E(CCSD(T))                                 ...   -208.871421085
FINAL SINGLE POINT ENERGY      -208.871421085368

DIPOLE MOMENT
-------------
                                X             Y             Z
Electronic contribution:      3.28943       0.39313      -0.00121
Nuclear contribution   :     -4.45888       0.82653       0.00253
                        -----------------------------------------
Total Dipole Moment    :     -1.16946       1.21966       0.00132
                        -----------------------------------------
Magnitude (a.u.)       :      1.68973
Magnitude (Debye)      :      4.29496

Rotational constants in cm-1:     0.648999     0.206752     0.161556
Rotational constants in MHz : 19456.506012  6198.275004  4843.324495

                             ****ORCA TERMINATED NORMALLY****
TOTAL RUN TIME: 0 days 0 hours 1 minutes 50 seconds 526 msec
