                         Program Version 4.1.x  -  STABLE  -
|  1> ! RHF DLPNO-CCSD(T) cc-pVTZ RIJK cc-pVTZ/JK cc-pVTZ/C
|  2> ! KDIIS SOSCF TightSCF TightPNO
|  3>
|  4> %pal nprocs 8 end
|  5>
|  6> %maxcore 8000
|  7>
|  8> %scf maxiter 300
|  9>      shift shift 0.2 erroff 0.1 end
| 10> end
| 11>
| 12> * xyzfile 0 1 N_Me_ethylamine_g_plus.xyz
| 13>
| 14>
| 15>                          ****END OF INPUT****

CARTESIAN COORDINATES (ANGSTROEM)
---------------------------------
  C     -1.566750    0.543510   -0.117720
  C     -0.645640   -0.616480    0.297840
  N      0.700710   -0.628240   -0.275510
  C      1.561520    0.484400    0.114720
  H     -1.122190   -1.567890    0.031130
  H     -0.534490   -0.623010    1.390380
  H     -2.552730    0.437030    0.349970
  H     -1.162820    1.516480    0.180970
  H      0.650080   -0.698500   -1.288380
  H     -1.713000    0.558530   -1.204820
  H      2.548570    0.351700   -0.339300
  H      1.191970    1.486540   -0.163180
  H      1.694820    0.468130    1.202830

 Total Charge           Charge          ....    0
 Multiplicity           Mult            ....    1
 Number of Electrons    NEL             ....   34
 Basis Dimension        Dim             ....  246

ORBITAL ENERGIES
----------------

  NO   OCC          E(Eh)            E(eV)
   0   2.0000     -15.534526      -422.7159
   1   2.0000     -11.245578      -306.0077
   2   2.0000     -11.239314      -305.8373
   3   2.0000     -11.212632      -305.1112
   4   2.0000      -1.192320       -32.4447
   5   2.0000      -0.998236       -27.1634
   6   2.0000      -0.901871       -24.5411
   7   2.0000      -0.811808       -22.0904
   8   2.0000      -0.657103       -17.8807
   9   2.0000      -0.614507       -16.7216
  10   2.0000      -0.590760       -16.0754
  11   2.0000      -0.553674       -15.0662
  12   2.0000      -0.539043       -14.6681
  13   2.0000      -0.518224       -14.1016
  14   2.0000      -0.490089       -13.3360
  15   2.0000      -0.478365       -13.0170
  16   2.0000      -0.359691        -9.7877
  17   0.0000       0.138017         3.7556
  18   0.0000       0.170259         4.6330
  19   0.0000       0.173928         4.7328
  20   0.0000       0.183691         4.9985
  21   0.0000       0.216295         5.8857

MULLIKEN ATOMIC CHARGES
-----------------------
   0 C :   -0.285563
   1 C :   -0.070680
   2 N :   -0.275794
   3 C :   -0.164475
   4 H :    0.096575
   5 H :    0.085199
   6 H :    0.095890
   7 H :    0.089389
   8 H :    0.113097
   9 H :    0.080867
  10 H :    0.098852
  11 H :    0.052495
  12 H :    0.084147
Sum of atomic charges:   -0.0000000

LOEWDIN ATOMIC CHARGES
----------------------
   0 C :    0.096147
   1 C :   -0.028636
   2 N :    0.284592
   3 C :    0.035076
   4 H :   -0.029433
   5 H :   -0.029250
   6 H :   -0.028602
   7 H :   -0.035000
   8 H :   -0.114438
   9 H :   -0.034477
  10 H :   -0.032651
  11 H :   -0.050886
  12 H :   -0.032444

  Mayer bond orders larger than 0.1
B(  0-C ,  1-C ) :   0.9422 B(  0-C ,  6-H ) :   0.9787 B(  0-C ,  7-H ) :   0.9789
B(  0-C ,  9-H ) :   0.9785 B(  1-C ,  2-N ) :   1.0033 B(  1-C ,  4-H ) :   0.9927
B(  1-C ,  5-H ) :   0.9858 B(  2-N ,  3-C ) :   0.9855 B(  2-N ,  8-H ) :   0.9984
B(  3-C , 10-H ) :   0.9880 B(  3-C , 11-H ) :   0.9631 B(  3-C , 12-H ) :   0.9786

E(0)                                       ...   -173.339808632
E(0)                                       ...   -173.339808632
E(CORR)(strong-pairs)                      ...     -0.796685324
E(CORR)(weak-pairs)                        ...     -0.000549435
E(CORR)(corrected)                         ...     -0.797234760
E(TOT)                                     ...   -174.137043392
E(CCSD(T))                                 ...   -174.166246391
FINAL SINGLE POINT ENERGY      -174.166246391049

DIPOLE MOMENT
-------------
                                X             Y             Z
Electronic contribution:      0.89801      -1.78695      -0.34445
Nuclear contribution   :     -1.07555       2.07981       0.17064
                        -----------------------------------------
Total Dipole Moment    :     -0.17754       0.29287      -0.17381
                        -----------------------------------------
Magnitude (a.u.)       :      0.38406
Magnitude (Debye)      :      0.97621

Rotational constants in cm-1:     0.489614     0.162556     0.141017
Rotational constants in MHz : 14678.260419  4873.316312  4227.578729

                             ****ORCA TERMINATED NORMALLY****
TOTAL RUN TIME: 0 days 0 hours 2 minutes 24 seconds 824 msec
