                         Program Version 4.1.x  -  STABLE  -
|  1> ! RHF DLPNO-CCSD(T) cc-pVTZ RIJK cc-pVTZ/JK cc-pVTZ/C
|  2> ! KDIIS SOSCF TightSCF TightPNO
|  3>
|  4> %pal nprocs 8 end
|  5>
|  6> %maxcore 8000
|  7>
|  8> %scf maxiter 300
|  9>      shift shift 0.2 erroff 0.1 end
| 10> end
| 11>
| 12> * xyzfile 0 1 N_Me_piperidine_ax.xyz
| 13>
| 14>
| 15>                          ****END OF INPUT****

CARTESIAN COORDINATES (ANGSTROEM)
---------------------------------
  C     -1.797590    0.000020   -0.162700
  C     -0.937390    1.265360   -0.321700
  C      0.281320    1.209930    0.620500
  N      1.100920   -0.000010    0.478230
  C      0.281290   -1.209950    0.620490
  C     -0.937440   -1.265330   -0.321690
  C      1.957960   -0.000010   -0.702920
  H      0.927100    2.083550    0.474380
  H     -0.073660    1.245620    1.661080
  H     -0.073680   -1.245660    1.661070
  H      0.927050   -2.083570    0.474340
  H     -0.600570    1.354250   -1.363490
  H     -1.528020    2.164990   -0.105650
  H     -1.528070   -2.164960   -0.105670
  H     -0.600640   -1.354220   -1.363490
  H     -2.253440    0.000020    0.838980
  H     -2.625160    0.000010   -0.882460
  H      2.603660    0.884500   -0.678360
  H      2.603630   -0.884550   -0.678390
  H      1.426510    0.000010   -1.671790

 Total Charge           Charge          ....    0
 Multiplicity           Mult            ....    1
 Number of Electrons    NEL             ....   56
 Basis Dimension        Dim             ....  392

ORBITAL ENERGIES
----------------

  NO   OCC          E(Eh)            E(eV)
   0   2.0000     -15.535728      -422.7486
   1   2.0000     -11.241532      -305.8976
   2   2.0000     -11.241517      -305.8972
   3   2.0000     -11.237999      -305.8015
   4   2.0000     -11.218104      -305.2601
   5   2.0000     -11.215340      -305.1849
   6   2.0000     -11.215268      -305.1830
   7   2.0000      -1.218574       -33.1591
   8   2.0000      -1.059338       -28.8261
   9   2.0000      -1.006132       -27.3782
  10   2.0000      -0.935416       -25.4540
  11   2.0000      -0.842417       -22.9233
  12   2.0000      -0.831504       -22.6264
  13   2.0000      -0.744856       -20.2685
  14   2.0000      -0.654326       -17.8051
  15   2.0000      -0.627876       -17.0854
  16   2.0000      -0.611347       -16.6356
  17   2.0000      -0.599745       -16.3199
  18   2.0000      -0.567053       -15.4303
  19   2.0000      -0.560390       -15.2490
  20   2.0000      -0.526625       -14.3302
  21   2.0000      -0.509372       -13.8607
  22   2.0000      -0.500475       -13.6186
  23   2.0000      -0.482654       -13.1337
  24   2.0000      -0.480096       -13.0641
  25   2.0000      -0.452170       -12.3042
  26   2.0000      -0.442287       -12.0352
  27   2.0000      -0.334773        -9.1096
  28   0.0000       0.137485         3.7412
  29   0.0000       0.158847         4.3224
  30   0.0000       0.168009         4.5718
  31   0.0000       0.169138         4.6025
  32   0.0000       0.198433         5.3996

MULLIKEN ATOMIC CHARGES
-----------------------
   0 C :   -0.191304
   1 C :   -0.208726
   2 C :   -0.097588
   3 N :   -0.237349
   4 C :   -0.097592
   5 C :   -0.208724
   6 C :   -0.189336
   7 H :    0.101613
   8 H :    0.091994
   9 H :    0.091996
  10 H :    0.101617
  11 H :    0.092207
  12 H :    0.108554
  13 H :    0.108558
  14 H :    0.092200
  15 H :    0.086406
  16 H :    0.108222
  17 H :    0.095900
  18 H :    0.095897
  19 H :    0.055456
Sum of atomic charges:    0.0000000

LOEWDIN ATOMIC CHARGES
----------------------
   0 C :    0.054361
   1 C :    0.051155
   2 C :   -0.015752
   3 N :    0.240293
   4 C :   -0.015736
   5 C :    0.051147
   6 C :    0.032135
   7 H :   -0.028504
   8 H :   -0.027201
   9 H :   -0.027203
  10 H :   -0.028508
  11 H :   -0.031162
  12 H :   -0.027261
  13 H :   -0.027263
  14 H :   -0.031159
  15 H :   -0.027100
  16 H :   -0.028862
  17 H :   -0.031208
  18 H :   -0.031205
  19 H :   -0.050969

  Mayer bond orders larger than 0.1
B(  0-C ,  1-C ) :   0.9432 B(  0-C ,  5-C ) :   0.9432 B(  0-C , 15-H ) :   0.9863
B(  0-C , 16-H ) :   0.9952 B(  1-C ,  2-C ) :   0.9354 B(  1-C , 11-H ) :   0.9807
B(  1-C , 12-H ) :   0.9890 B(  2-C ,  3-N ) :   0.9975 B(  2-C ,  7-H ) :   0.9964
B(  2-C ,  8-H ) :   0.9928 B(  3-N ,  4-C ) :   0.9975 B(  3-N ,  6-C ) :   0.9901
B(  4-C ,  5-C ) :   0.9354 B(  4-C ,  9-H ) :   0.9928 B(  4-C , 10-H ) :   0.9964
B(  5-C , 13-H ) :   0.9890 B(  5-C , 14-H ) :   0.9807 B(  6-C , 17-H ) :   0.9849
B(  6-C , 18-H ) :   0.9849 B(  6-C , 19-H ) :   0.9616

E(0)                                       ...   -289.310009170
E(0)                                       ...   -289.310009170
E(CORR)(strong-pairs)                      ...     -1.316061588
E(CORR)(weak-pairs)                        ...     -0.001365969
E(CORR)(corrected)                         ...     -1.317427556
E(TOT)                                     ...   -290.627436726
E(CCSD(T))                                 ...   -290.680362646
FINAL SINGLE POINT ENERGY      -290.680362645703

DIPOLE MOMENT
-------------
                                X             Y             Z
Electronic contribution:      0.61056       0.00001       1.59193
Nuclear contribution   :     -0.83652      -0.00002      -1.84163
                        -----------------------------------------
Total Dipole Moment    :     -0.22597      -0.00001      -0.24970
                        -----------------------------------------
Magnitude (a.u.)       :      0.33676
Magnitude (Debye)      :      0.85598

Rotational constants in cm-1:     0.123632     0.086015     0.064813
Rotational constants in MHz :  3706.404363  2578.658134  1943.040273

                             ****ORCA TERMINATED NORMALLY****
TOTAL RUN TIME: 0 days 0 hours 12 minutes 30 seconds 402 msec
