                         Program Version 4.1.x  -  STABLE  -
|  1> ! RHF DLPNO-CCSD(T) cc-pVTZ RIJK cc-pVTZ/JK cc-pVTZ/C
|  2> ! KDIIS SOSCF TightSCF TightPNO
|  3>
|  4> %pal nprocs 8 end
|  5>
|  6> %maxcore 8000
|  7>
|  8> %scf maxiter 300
|  9>      shift shift 0.2 erroff 0.1 end
| 10> end
| 11>
| 12> * xyzfile 0 1 N_Me_ethylamine_a.xyz
| 13>
| 14>
| 15>                          ****END OF INPUT****

CARTESIAN COORDINATES (ANGSTROEM)
---------------------------------
  C      1.905670   -0.143420   -0.029360
  C      0.524830    0.503660    0.051620
  N     -0.537410   -0.487150   -0.111000
  C     -1.880860    0.072710   -0.007420
  H      0.414590    1.241420   -0.754160
  H      0.431860    1.064830    1.002640
  H      2.694130    0.610450    0.066350
  H      2.048040   -0.874400    0.776360
  H     -0.418560   -1.228450    0.575400
  H      2.032890   -0.663360   -0.983970
  H     -2.620560   -0.730330   -0.079950
  H     -2.064800    0.632220    0.928870
  H     -2.053610    0.759970   -0.843570

 Total Charge           Charge          ....    0
 Multiplicity           Mult            ....    1
 Number of Electrons    NEL             ....   34
 Basis Dimension        Dim             ....  246

ORBITAL ENERGIES
----------------

  NO   OCC          E(Eh)            E(eV)
   0   2.0000     -15.535966      -422.7551
   1   2.0000     -11.245556      -306.0071
   2   2.0000     -11.240070      -305.8578
   3   2.0000     -11.212706      -305.1132
   4   2.0000      -1.195538       -32.5322
   5   2.0000      -1.003334       -27.3021
   6   2.0000      -0.889409       -24.2021
   7   2.0000      -0.818552       -22.2739
   8   2.0000      -0.653210       -17.7747
   9   2.0000      -0.609090       -16.5742
  10   2.0000      -0.604829       -16.4582
  11   2.0000      -0.567999       -15.4560
  12   2.0000      -0.529398       -14.4056
  13   2.0000      -0.500889       -13.6299
  14   2.0000      -0.487790       -13.2734
  15   2.0000      -0.484823       -13.1927
  16   2.0000      -0.364750        -9.9254
  17   0.0000       0.141916         3.8617
  18   0.0000       0.159763         4.3474
  19   0.0000       0.173680         4.7261
  20   0.0000       0.198021         5.3884
  21   0.0000       0.216426         5.8893

MULLIKEN ATOMIC CHARGES
-----------------------
   0 C :   -0.275390
   1 C :   -0.033016
   2 N :   -0.272125
   3 C :   -0.163961
   4 H :    0.079770
   5 H :    0.049913
   6 H :    0.090162
   7 H :    0.078948
   8 H :    0.115364
   9 H :    0.099455
  10 H :    0.095167
  11 H :    0.050421
  12 H :    0.085291
Sum of atomic charges:    0.0000000

LOEWDIN ATOMIC CHARGES
----------------------
   0 C :    0.102747
   1 C :   -0.027689
   2 N :    0.280961
   3 C :    0.035896
   4 H :   -0.029961
   5 H :   -0.044954
   6 H :   -0.028628
   7 H :   -0.033107
   8 H :   -0.112857
   9 H :   -0.027831
  10 H :   -0.033226
  11 H :   -0.048523
  12 H :   -0.032829

  Mayer bond orders larger than 0.1
B(  0-C ,  1-C ) :   0.9649 B(  0-C ,  6-H ) :   0.9836 B(  0-C ,  7-H ) :   0.9824
B(  0-C ,  9-H ) :   0.9777 B(  1-C ,  2-N ) :   0.9859 B(  1-C ,  4-H ) :   0.9763
B(  1-C ,  5-H ) :   0.9703 B(  2-N ,  3-C ) :   0.9889 B(  2-N ,  8-H ) :   0.9885
B(  3-C , 10-H ) :   0.9880 B(  3-C , 11-H ) :   0.9655 B(  3-C , 12-H ) :   0.9793

E(0)                                       ...   -173.342448298
E(0)                                       ...   -173.342448298
E(CORR)(strong-pairs)                      ...     -0.796153427
E(CORR)(weak-pairs)                        ...     -0.000550602
E(CORR)(corrected)                         ...     -0.796704029
E(TOT)                                     ...   -174.139152327
E(CCSD(T))                                 ...   -174.168248740
FINAL SINGLE POINT ENERGY      -174.168248740478

DIPOLE MOMENT
-------------
                                X             Y             Z
Electronic contribution:     -0.51835      -0.77353      -0.37895
Nuclear contribution   :      0.49781       0.87444       0.74246
                        -----------------------------------------
Total Dipole Moment    :     -0.02054       0.10090       0.36350
                        -----------------------------------------
Magnitude (a.u.)       :      0.37781
Magnitude (Debye)      :      0.96031

Rotational constants in cm-1:     0.873396     0.129215     0.121092
Rotational constants in MHz : 26183.742083  3873.757139  3630.246166

                             ****ORCA TERMINATED NORMALLY****
TOTAL RUN TIME: 0 days 0 hours 2 minutes 31 seconds 664 msec
