                         Program Version 4.1.x  -  STABLE  -
|  1> ! RHF DLPNO-CCSD(T) cc-pVTZ RIJK cc-pVTZ/JK cc-pVTZ/C
|  2> ! KDIIS SOSCF TightSCF TightPNO
|  3>
|  4> %pal nprocs 8 end
|  5>
|  6> %maxcore 8000
|  7>
|  8> %scf maxiter 300
|  9>      shift shift 0.2 erroff 0.1 end
| 10> end
| 11>
| 12> * xyzfile 0 1 N_methylformamidine_t.xyz
| 13>
| 14>
| 15>                          ****END OF INPUT****

CARTESIAN COORDINATES (ANGSTROEM)
---------------------------------
  C     -1.812040    0.068060   -0.000080
  N     -0.471830   -0.485950    0.000070
  C      0.507380    0.329120    0.000150
  N      1.815410   -0.076310    0.000030
  H      0.386580    1.423670    0.000060
  H      2.568670    0.588740   -0.000600
  H      2.027170   -1.062270   -0.000280
  H     -2.361930   -0.284530    0.881080
  H     -1.835670    1.172100   -0.000330
  H     -2.361940   -0.284950   -0.881070

 Total Charge           Charge          ....    0
 Multiplicity           Mult            ....    1
 Number of Electrons    NEL             ....   32
 Basis Dimension        Dim             ....  204

ORBITAL ENERGIES
----------------

  NO   OCC          E(Eh)            E(eV)
   0   2.0000     -15.566984      -423.5992
   1   2.0000     -15.520226      -422.3268
   2   2.0000     -11.304995      -307.6246
   3   2.0000     -11.234718      -305.7122
   4   2.0000      -1.250942       -34.0398
   5   2.0000      -1.153710       -31.3941
   6   2.0000      -0.924389       -25.1539
   7   2.0000      -0.800320       -21.7778
   8   2.0000      -0.714417       -19.4403
   9   2.0000      -0.649530       -17.6746
  10   2.0000      -0.594987       -16.1904
  11   2.0000      -0.577318       -15.7096
  12   2.0000      -0.532349       -14.4859
  13   2.0000      -0.501922       -13.6580
  14   2.0000      -0.392595       -10.6831
  15   2.0000      -0.340878        -9.2758
  16   0.0000       0.141945         3.8625
  17   0.0000       0.157712         4.2916
  18   0.0000       0.177409         4.8275
  19   0.0000       0.193098         5.2545
  20   0.0000       0.217027         5.9056

MULLIKEN ATOMIC CHARGES
-----------------------
   0 C :   -0.112113
   1 N :   -0.300124
   2 C :    0.092133
   3 N :   -0.327697
   4 H :    0.077332
   5 H :    0.184265
   6 H :    0.190502
   7 H :    0.081640
   8 H :    0.032417
   9 H :    0.081646
Sum of atomic charges:    0.0000000

LOEWDIN ATOMIC CHARGES
----------------------
   0 C :    0.008912
   1 N :    0.121186
   2 C :   -0.194330
   3 N :    0.407551
   4 H :   -0.047423
   5 H :   -0.092999
   6 H :   -0.081200
   7 H :   -0.036322
   8 H :   -0.049062
   9 H :   -0.036314

  Mayer bond orders larger than 0.1
B(  0-C ,  1-N ) :   0.9927 B(  0-C ,  7-H ) :   0.9726 B(  0-C ,  8-H ) :   0.9740
B(  0-C ,  9-H ) :   0.9726 B(  1-N ,  2-C ) :   1.9482 B(  2-C ,  3-N ) :   1.1455
B(  2-C ,  4-H ) :   0.9604 B(  3-N ,  5-H ) :   0.9748 B(  3-N ,  6-H ) :   0.9461

E(0)                                       ...   -188.178772205
E(0)                                       ...   -188.178772205
E(CORR)(strong-pairs)                      ...     -0.781735060
E(CORR)(weak-pairs)                        ...     -0.000493795
E(CORR)(corrected)                         ...     -0.782228854
E(TOT)                                     ...   -188.961001059
E(CCSD(T))                                 ...   -188.993297182
FINAL SINGLE POINT ENERGY      -188.993297181551

DIPOLE MOMENT
-------------
                                X             Y             Z
Electronic contribution:      2.35714      -0.89074       0.00057
Nuclear contribution   :     -1.62365       1.60319      -0.00118
                        -----------------------------------------
Total Dipole Moment    :      0.73349       0.71245      -0.00061
                        -----------------------------------------
Magnitude (a.u.)       :      1.02254
Magnitude (Debye)      :      2.59910

Rotational constants in cm-1:     1.486539     0.141745     0.132591
Rotational constants in MHz : 44565.319471  4249.394780  3974.986126

                             ****ORCA TERMINATED NORMALLY****
TOTAL RUN TIME: 0 days 0 hours 2 minutes 17 seconds 729 msec
