                         Program Version 4.1.x  -  STABLE  -
|  1> ! RHF DLPNO-CCSD(T) cc-pVTZ RIJK cc-pVTZ/JK cc-pVTZ/C
|  2> ! KDIIS SOSCF TightSCF TightPNO
|  3>
|  4> %pal nprocs 8 end
|  5>
|  6> %maxcore 8000
|  7>
|  8> %scf maxiter 300
|  9>      shift shift 0.2 erroff 0.1 end
| 10> end
| 11>
| 12> * xyzfile 0 1 N_Me_spiro_piperidine_2_2p_adamantane_b.xyz
| 13>
| 14>
| 15>                          ****END OF INPUT****

CARTESIAN COORDINATES (ANGSTROEM)
---------------------------------
  C      2.306040   -1.253600   -0.078280
  C      1.322730   -1.243630   -1.263950
  C      0.347550   -0.040660   -1.143200
  C     -0.507700   -0.105310    0.171350
  C      0.569410   -0.070900    1.306680
  C      1.540500   -1.268410    1.253540
  C      1.416650    1.217320    1.233120
  C      2.239570    1.238350   -0.065570
  C      1.293440    1.177170   -1.273080
  C      3.171350    0.016950   -0.118000
  C     -1.257300   -1.470600    0.287100
  C     -2.518700   -1.525230   -0.585930
  C     -3.443580   -0.346200   -0.266510
  C     -2.811370    0.523730    0.824530
  N     -1.470540    0.996500    0.479220
  C     -1.608900    2.041040   -0.527310
  H      2.968770   -2.152170   -0.142600
  H      0.798230   -2.219740   -1.354620
  H      1.899270   -1.183470   -2.217510
  H     -0.333700   -0.070950   -2.026050
  H      0.049730   -0.090040    2.296600
  H      1.016600   -2.240390    1.395070
  H      2.260890   -1.211170    2.103810
  H      2.105320    1.269950    2.109580
  H      0.773950    2.125380    1.296640
  H      2.853600    2.172160   -0.110390
  H      1.889970    1.109550   -2.213620
  H      0.770510    2.143930   -1.400530
  H      3.788170    0.036430   -1.047710
  H      3.886410    0.035010    0.738360
  H     -1.529850   -1.688530    1.345870
  H     -0.645160   -2.353920    0.014020
  H     -3.052000   -2.493400   -0.425580
  H     -2.227140   -1.500180   -1.662700
  H     -4.434720   -0.718510    0.088230
  H     -3.646640    0.256220   -1.183340
  H     -2.775570   -0.021830    1.796600
  H     -3.487210    1.379410    1.064330
  H     -2.504250    2.679300   -0.349250
  H     -0.788080    2.782000   -0.435830
  H     -1.701430    1.639390   -1.560770

 Total Charge           Charge          ....    0
 Multiplicity           Mult            ....    1
 Number of Electrons    NEL             ....  122
 Basis Dimension        Dim             ....  830

ORBITAL ENERGIES
----------------

  NO   OCC          E(Eh)            E(eV)
   0   2.0000     -15.538458      -422.8229
   1   2.0000     -11.262147      -306.4586
   2   2.0000     -11.243362      -305.9474
   3   2.0000     -11.239125      -305.8321
   4   2.0000     -11.229587      -305.5726
   5   2.0000     -11.219176      -305.2893
   6   2.0000     -11.219074      -305.2865
   7   2.0000     -11.218078      -305.2594
   8   2.0000     -11.216545      -305.2177
   9   2.0000     -11.216259      -305.2099
  10   2.0000     -11.216205      -305.2085
  11   2.0000     -11.212350      -305.1036
  12   2.0000     -11.212089      -305.0965
  13   2.0000     -11.211055      -305.0683
  14   2.0000     -11.210323      -305.0484
  15   2.0000     -11.207019      -304.9585
  16   2.0000      -1.226425       -33.3727
  17   2.0000      -1.148843       -31.2616
  18   2.0000      -1.061867       -28.8949
  19   2.0000      -1.034939       -28.1621
  20   2.0000      -1.029091       -28.0030
  21   2.0000      -1.023743       -27.8575
  22   2.0000      -0.955059       -25.9885
  23   2.0000      -0.926015       -25.1982
  24   2.0000      -0.893691       -24.3186
  25   2.0000      -0.861777       -23.4501
  26   2.0000      -0.835490       -22.7348
  27   2.0000      -0.793802       -21.6004
  28   2.0000      -0.785257       -21.3679
  29   2.0000      -0.775205       -21.0944
  30   2.0000      -0.728251       -19.8167
  31   2.0000      -0.683860       -18.6088
  32   2.0000      -0.654695       -17.8152
  33   2.0000      -0.653246       -17.7757
  34   2.0000      -0.621716       -16.9178
  35   2.0000      -0.610294       -16.6069
  36   2.0000      -0.598591       -16.2885
  37   2.0000      -0.586937       -15.9714
  38   2.0000      -0.583091       -15.8667
  39   2.0000      -0.575633       -15.6638
  40   2.0000      -0.568158       -15.4604
  41   2.0000      -0.549767       -14.9599
  42   2.0000      -0.545284       -14.8379
  43   2.0000      -0.535259       -14.5651
  44   2.0000      -0.529756       -14.4154
  45   2.0000      -0.519454       -14.1351
  46   2.0000      -0.517973       -14.0948
  47   2.0000      -0.512257       -13.9392
  48   2.0000      -0.495057       -13.4712
  49   2.0000      -0.480600       -13.0778
  50   2.0000      -0.474498       -12.9118
  51   2.0000      -0.458626       -12.4798
  52   2.0000      -0.455153       -12.3853
  53   2.0000      -0.455010       -12.3815
  54   2.0000      -0.446492       -12.1497
  55   2.0000      -0.438839       -11.9414
  56   2.0000      -0.425419       -11.5762
  57   2.0000      -0.403405       -10.9772
  58   2.0000      -0.398243       -10.8367
  59   2.0000      -0.390210       -10.6182
  60   2.0000      -0.330048        -8.9811
  61   0.0000       0.127346         3.4653
  62   0.0000       0.146379         3.9832
  63   0.0000       0.149887         4.0786
  64   0.0000       0.157291         4.2801
  65   0.0000       0.170955         4.6519

MULLIKEN ATOMIC CHARGES
-----------------------
   0 C :   -0.055776
   1 C :   -0.242950
   2 C :   -0.086069
   3 C :    0.099554
   4 C :   -0.014032
   5 C :   -0.247395
   6 C :   -0.242916
   7 C :   -0.057940
   8 C :   -0.241309
   9 C :   -0.213447
  10 C :   -0.219968
  11 C :   -0.212113
  12 C :   -0.200310
  13 C :   -0.078508
  14 N :   -0.263400
  15 C :   -0.226064
  16 H :    0.096227
  17 H :    0.107948
  18 H :    0.104348
  19 H :    0.111736
  20 H :    0.088168
  21 H :    0.106591
  22 H :    0.100823
  23 H :    0.100416
  24 H :    0.111478
  25 H :    0.096144
  26 H :    0.100242
  27 H :    0.123815
  28 H :    0.095046
  29 H :    0.094016
  30 H :    0.105071
  31 H :    0.117280
  32 H :    0.104566
  33 H :    0.091345
  34 H :    0.098110
  35 H :    0.093175
  36 H :    0.081056
  37 H :    0.097383
  38 H :    0.105758
  39 H :    0.093835
  40 H :    0.078063
Sum of atomic charges:    0.0000000

LOEWDIN ATOMIC CHARGES
----------------------
   0 C :   -0.013347
   1 C :    0.067241
   2 C :    0.008556
   3 C :   -0.112818
   4 C :   -0.007543
   5 C :    0.060073
   6 C :    0.062857
   7 C :   -0.015075
   8 C :    0.061080
   9 C :    0.057504
  10 C :    0.052426
  11 C :    0.046702
  12 C :    0.039884
  13 C :   -0.038770
  14 N :    0.258058
  15 C :    0.023151
  16 H :   -0.017736
  17 H :   -0.026326
  18 H :   -0.014903
  19 H :   -0.024274
  20 H :   -0.016223
  21 H :   -0.023461
  22 H :   -0.017029
  23 H :   -0.019262
  24 H :   -0.018739
  25 H :   -0.017122
  26 H :   -0.015800
  27 H :   -0.028318
  28 H :   -0.020966
  29 H :   -0.020312
  30 H :   -0.017790
  31 H :   -0.022628
  32 H :   -0.019194
  33 H :   -0.023594
  34 H :   -0.020430
  35 H :   -0.023618
  36 H :   -0.023738
  37 H :   -0.018093
  38 H :   -0.022418
  39 H :   -0.035928
  40 H :   -0.042078

  Mayer bond orders larger than 0.1
B(  0-C ,  1-C ) :   0.9497 B(  0-C ,  5-C ) :   0.9398 B(  0-C ,  9-C ) :   0.9395
B(  0-C , 16-H ) :   1.0011 B(  1-C ,  2-C ) :   0.9450 B(  1-C , 17-H ) :   0.9923
B(  1-C , 18-H ) :   0.9990 B(  2-C ,  3-C ) :   0.9518 B(  2-C ,  8-C ) :   0.9454
B(  2-C , 19-H ) :   0.9921 B(  3-C ,  4-C ) :   0.9776 B(  3-C , 10-C ) :   0.9598
B(  3-C , 14-N ) :   0.9352 B(  4-C ,  5-C ) :   0.9335 B(  4-C ,  6-C ) :   0.9467
B(  4-C , 20-H ) :   0.9906 B(  5-C , 21-H ) :   0.9949 B(  5-C , 22-H ) :   0.9978
B(  6-C ,  7-C ) :   0.9447 B(  6-C , 23-H ) :   0.9973 B(  6-C , 24-H ) :   0.9929
B(  7-C ,  8-C ) :   0.9384 B(  7-C ,  9-C ) :   0.9390 B(  7-C , 25-H ) :   1.0021
B(  8-C , 26-H ) :   1.0010 B(  8-C , 27-H ) :   0.9916 B(  9-C , 28-H ) :   1.0000
B(  9-C , 29-H ) :   0.9992 B( 10-C , 11-C ) :   0.9590 B( 10-C , 30-H ) :   0.9852
B( 10-C , 31-H ) :   0.9875 B( 11-C , 12-C ) :   0.9184 B( 11-C , 32-H ) :   0.9970
B( 11-C , 33-H ) :   0.9933 B( 12-C , 13-C ) :   0.9456 B( 12-C , 34-H ) :   0.9919
B( 12-C , 35-H ) :   0.9899 B( 13-C , 14-N ) :   1.0035 B( 13-C , 36-H ) :   0.9878
B( 13-C , 37-H ) :   0.9988 B( 14-N , 15-C ) :   0.9707 B( 15-C , 38-H ) :   0.9874
B( 15-C , 39-H ) :   0.9816 B( 15-C , 40-H ) :   0.9704

E(0)                                       ...   -637.182083808
E(0)                                       ...   -637.182083808
E(CORR)(strong-pairs)                      ...     -2.898030220
E(CORR)(weak-pairs)                        ...     -0.005260310
E(CORR)(corrected)                         ...     -2.903290530
E(TOT)                                     ...   -640.085374337
E(CCSD(T))                                 ...   -640.213041808
FINAL SINGLE POINT ENERGY      -640.213041808104

DIPOLE MOMENT
-------------
                                X             Y             Z
Electronic contribution:      1.96553       0.16757       1.71285
Nuclear contribution   :     -2.16513      -0.32350      -1.96211
                        -----------------------------------------
Total Dipole Moment    :     -0.19960      -0.15593      -0.24926
                        -----------------------------------------
Magnitude (a.u.)       :      0.35537
Magnitude (Debye)      :      0.90327

Rotational constants in cm-1:     0.034525     0.015725     0.014141
Rotational constants in MHz :  1035.048239   471.426525   423.951299

                             ****ORCA TERMINATED NORMALLY****
TOTAL RUN TIME: 0 days 3 hours 47 minutes 23 seconds 920 msec
