                         Program Version 4.1.x  -  STABLE  -
|  1> ! RHF DLPNO-CCSD(T) cc-pVTZ RIJK cc-pVTZ/JK cc-pVTZ/C
|  2> ! KDIIS SOSCF TightSCF TightPNO
|  3>
|  4> %pal nprocs 8 end
|  5>
|  6> %maxcore 8000
|  7>
|  8> %scf maxiter 300
|  9>      shift shift 0.2 erroff 0.1 end
| 10> end
| 11>
| 12> * xyzfile 0 1 N_me_piperidine_sofa_eq.xyz
| 13>
| 14>
| 15>                          ****END OF INPUT****

CARTESIAN COORDINATES (ANGSTROEM)
---------------------------------
  C     -1.148000    1.307600    0.020000
  C     -1.929300   -0.021800   -0.131800
  C     -1.105300   -1.323900   -0.110100
  C      0.317500   -1.135500    0.377300
  N      0.926600   -0.027700   -0.344500
  C      0.372600    1.203400    0.193700
  H     -1.550300    1.878800    0.854600
  H     -1.334400    1.905700   -0.871300
  H     -2.508100    0.012700   -1.051600
  H     -2.662200   -0.071600    0.673600
  H     -1.035100   -1.719600   -1.123100
  H     -1.610200   -2.078500    0.493100
  H      0.893700   -2.041300    0.185200
  H      0.351200   -0.949300    1.466200
  C      2.366200   -0.027100   -0.156600
  H      0.854500    2.048500   -0.298000
  H      0.629900    1.269900    1.267100
  H      2.805300    0.814000   -0.691100
  H      2.646900    0.056400    0.905600
  H      2.789800   -0.947900   -0.553800

 Total Charge           Charge          ....    0
 Multiplicity           Mult            ....    1
 Number of Electrons    NEL             ....   56
 Basis Dimension        Dim             ....  392

ORBITAL ENERGIES
----------------

  NO   OCC          E(Eh)            E(eV)
   0   2.0000     -15.539624      -422.8547
   1   2.0000     -11.239135      -305.8324
   2   2.0000     -11.237877      -305.7982
   3   2.0000     -11.235650      -305.7376
   4   2.0000     -11.213199      -305.1266
   5   2.0000     -11.212643      -305.1115
   6   2.0000     -11.209793      -305.0340
   7   2.0000      -1.234075       -33.5809
   8   2.0000      -1.058741       -28.8098
   9   2.0000      -1.011287       -27.5185
  10   2.0000      -0.933760       -25.4089
  11   2.0000      -0.847172       -23.0527
  12   2.0000      -0.836131       -22.7523
  13   2.0000      -0.737054       -20.0563
  14   2.0000      -0.654313       -17.8047
  15   2.0000      -0.640512       -17.4292
  16   2.0000      -0.624657       -16.9978
  17   2.0000      -0.603990       -16.4354
  18   2.0000      -0.572467       -15.5776
  19   2.0000      -0.544191       -14.8082
  20   2.0000      -0.528726       -14.3874
  21   2.0000      -0.525387       -14.2965
  22   2.0000      -0.503431       -13.6990
  23   2.0000      -0.486580       -13.2405
  24   2.0000      -0.453423       -12.3383
  25   2.0000      -0.438590       -11.9346
  26   2.0000      -0.435586       -11.8529
  27   2.0000      -0.355749        -9.6804
  28   0.0000       0.137397         3.7388
  29   0.0000       0.159812         4.3487
  30   0.0000       0.167790         4.5658
  31   0.0000       0.172270         4.6877
  32   0.0000       0.196022         5.3340

MULLIKEN ATOMIC CHARGES
-----------------------
   0 C :   -0.189023
   1 C :   -0.197685
   2 C :   -0.166859
   3 C :   -0.079511
   4 N :   -0.227072
   5 C :   -0.073745
   6 H :    0.100558
   7 H :    0.094955
   8 H :    0.103065
   9 H :    0.094207
  10 H :    0.088506
  11 H :    0.098977
  12 H :    0.096548
  13 H :    0.057992
  14 C :   -0.189299
  15 H :    0.092055
  16 H :    0.050884
  17 H :    0.094762
  18 H :    0.054632
  19 H :    0.096054
Sum of atomic charges:    0.0000000

LOEWDIN ATOMIC CHARGES
----------------------
   0 C :    0.068372
   1 C :    0.071989
   2 C :    0.055745
   3 C :   -0.021660
   4 N :    0.247587
   5 C :   -0.024177
   6 H :   -0.029640
   7 H :   -0.029508
   8 H :   -0.028882
   9 H :   -0.032200
  10 H :   -0.027235
  11 H :   -0.030050
  12 H :   -0.027517
  13 H :   -0.042471
  14 C :    0.037269
  15 H :   -0.029524
  16 H :   -0.045547
  17 H :   -0.032987
  18 H :   -0.045564
  19 H :   -0.033998

  Mayer bond orders larger than 0.1
B(  0-C ,  1-C ) :   0.9242 B(  0-C ,  5-C ) :   0.9429 B(  0-C ,  6-H ) :   0.9983
B(  0-C ,  7-H ) :   0.9975 B(  1-C ,  2-C ) :   0.9337 B(  1-C ,  8-H ) :   1.0002
B(  1-C ,  9-H ) :   0.9997 B(  2-C ,  3-C ) :   0.9638 B(  2-C , 10-H ) :   0.9882
B(  2-C , 11-H ) :   0.9946 B(  3-C ,  4-N ) :   0.9603 B(  3-C , 12-H ) :   0.9937
B(  3-C , 13-H ) :   0.9735 B(  4-N ,  5-C ) :   0.9806 B(  4-N , 14-C ) :   0.9850
B(  5-C , 15-H ) :   0.9939 B(  5-C , 16-H ) :   0.9828 B( 14-C , 17-H ) :   0.9865
B( 14-C , 18-H ) :   0.9669 B( 14-C , 19-H ) :   0.9865

E(0)                                       ...   -289.300284916
E(0)                                       ...   -289.300284916
E(CORR)(strong-pairs)                      ...     -1.315559319
E(CORR)(weak-pairs)                        ...     -0.001362865
E(CORR)(corrected)                         ...     -1.316922184
E(TOT)                                     ...   -290.617207100
E(CCSD(T))                                 ...   -290.669737324
FINAL SINGLE POINT ENERGY      -290.669737324327

DIPOLE MOMENT
-------------
                                X             Y             Z
Electronic contribution:     -0.27198      -0.17090      -1.08376
Nuclear contribution   :      0.29330       0.18835       1.33031
                        -----------------------------------------
Total Dipole Moment    :      0.02131       0.01745       0.24655
                        -----------------------------------------
Magnitude (a.u.)       :      0.24808
Magnitude (Debye)      :      0.63057

Rotational constants in cm-1:     0.145119     0.077243     0.055223
Rotational constants in MHz :  4350.551050  2315.691043  1655.539866

                             ****ORCA TERMINATED NORMALLY****
TOTAL RUN TIME: 0 days 0 hours 11 minutes 3 seconds 224 msec
