                         Program Version 4.1.x  -  STABLE  -
|  1> ! RHF DLPNO-CCSD(T) cc-pVTZ RIJK cc-pVTZ/JK cc-pVTZ/C
|  2> ! KDIIS SOSCF TightSCF TightPNO
|  3>
|  4> %pal nprocs 8 end
|  5>
|  6> %maxcore 8000
|  7>
|  8> %scf maxiter 300
|  9>      shift shift 0.2 erroff 0.1 end
| 10> end
| 11>
| 12> * xyzfile 0 1 NAPA_anti.xyz
| 13>
| 14>
| 15>                          ****END OF INPUT****

CARTESIAN COORDINATES (ANGSTROEM)
---------------------------------
  C      4.287860   -0.391770    0.589070
  C      3.498670   -1.542250    0.671610
  C      2.220070   -1.554050    0.109190
  C      1.707100   -0.421080   -0.540920
  C      2.507900    0.728010   -0.618170
  C      3.787960    0.741750   -0.057420
  C      0.313120   -0.452880   -1.139260
  C     -0.788410   -0.033980   -0.150480
  C     -0.800570    1.496060    0.100890
  N     -1.371360    1.854770    1.280340
  N     -2.106000   -0.442410   -0.651000
  C     -3.159100   -0.699310    0.176250
  O     -3.065610   -0.598080    1.403470
  C     -4.452190   -1.126010   -0.490280
  O     -0.351410    2.298750   -0.712190
  H     -4.384110   -1.188570   -1.579770
  H     -5.238420   -0.415500   -0.219920
  H     -4.741830   -2.103030   -0.093540
  H     -0.650030   -0.548030    0.804990
  H     -1.523990    2.839200    1.450180
  H     -2.255860   -0.430870   -1.650430
  H     -1.904730    1.170020    1.807100
  H      0.265440    0.205380   -2.013290
  H      0.086830   -1.473610   -1.468130
  H      2.116410    1.614210   -1.108030
  H      1.616180   -2.457020    0.169910
  H      3.878700   -2.430990    1.167660
  H      4.394680    1.640280   -0.127380
  H      5.283960   -0.380310    1.022240

 Total Charge           Charge          ....    0
 Multiplicity           Mult            ....    1
 Number of Electrons    NEL             ....  110
 Basis Dimension        Dim             ....  646

ORBITAL ENERGIES
----------------

  NO   OCC          E(Eh)            E(eV)
   0   2.0000     -20.529723      -558.6422
   1   2.0000     -20.517593      -558.3121
   2   2.0000     -15.604963      -424.6326
   3   2.0000     -15.573091      -423.7653
   4   2.0000     -11.369783      -309.3875
   5   2.0000     -11.350407      -308.8603
   6   2.0000     -11.291314      -307.2523
   7   2.0000     -11.251927      -306.1805
   8   2.0000     -11.242065      -305.9121
   9   2.0000     -11.241389      -305.8937
  10   2.0000     -11.233208      -305.6711
  11   2.0000     -11.231918      -305.6360
  12   2.0000     -11.231125      -305.6144
  13   2.0000     -11.230008      -305.5841
  14   2.0000     -11.225935      -305.4732
  15   2.0000      -1.390740       -37.8440
  16   2.0000      -1.373728       -37.3810
  17   2.0000      -1.248973       -33.9863
  18   2.0000      -1.201995       -32.7080
  19   2.0000      -1.149532       -31.2803
  20   2.0000      -1.072217       -29.1765
  21   2.0000      -1.023679       -27.8557
  22   2.0000      -1.007532       -27.4163
  23   2.0000      -0.979620       -26.6568
  24   2.0000      -0.899438       -24.4750
  25   2.0000      -0.823153       -22.3991
  26   2.0000      -0.821787       -22.3620
  27   2.0000      -0.791528       -21.5386
  28   2.0000      -0.779739       -21.2178
  29   2.0000      -0.725621       -19.7452
  30   2.0000      -0.701817       -19.0974
  31   2.0000      -0.686585       -18.6829
  32   2.0000      -0.675074       -18.3697
  33   2.0000      -0.668254       -18.1841
  34   2.0000      -0.631670       -17.1886
  35   2.0000      -0.628825       -17.1112
  36   2.0000      -0.622423       -16.9370
  37   2.0000      -0.597457       -16.2576
  38   2.0000      -0.596652       -16.2357
  39   2.0000      -0.580748       -15.8030
  40   2.0000      -0.578347       -15.7376
  41   2.0000      -0.562752       -15.3133
  42   2.0000      -0.546819       -14.8797
  43   2.0000      -0.541648       -14.7390
  44   2.0000      -0.530622       -14.4389
  45   2.0000      -0.521225       -14.1833
  46   2.0000      -0.487639       -13.2693
  47   2.0000      -0.485952       -13.2234
  48   2.0000      -0.481495       -13.1021
  49   2.0000      -0.447272       -12.1709
  50   2.0000      -0.436906       -11.8888
  51   2.0000      -0.410301       -11.1649
  52   2.0000      -0.396249       -10.7825
  53   2.0000      -0.331146        -9.0109
  54   2.0000      -0.325220        -8.8497
  55   0.0000       0.119193         3.2434
  56   0.0000       0.126361         3.4385
  57   0.0000       0.130062         3.5392
  58   0.0000       0.147878         4.0240
  59   0.0000       0.157396         4.2830

MULLIKEN ATOMIC CHARGES
-----------------------
   0 C :   -0.166709
   1 C :   -0.140247
   2 C :   -0.194755
   3 C :    0.020720
   4 C :   -0.184362
   5 C :   -0.139756
   6 C :   -0.225068
   7 C :    0.007751
   8 C :    0.350473
   9 N :   -0.328203
  10 N :   -0.261298
  11 C :    0.339343
  12 O :   -0.491757
  13 C :   -0.268911
  14 O :   -0.453074
  15 H :    0.090919
  16 H :    0.119674
  17 H :    0.122978
  18 H :    0.154458
  19 H :    0.184161
  20 H :    0.192437
  21 H :    0.230779
  22 H :    0.137142
  23 H :    0.124532
  24 H :    0.181060
  25 H :    0.144379
  26 H :    0.149778
  27 H :    0.152559
  28 H :    0.150998
Sum of atomic charges:   -0.0000000

LOEWDIN ATOMIC CHARGES
----------------------
   0 C :    0.023684
   1 C :    0.024919
   2 C :    0.028350
   3 C :   -0.042001
   4 C :    0.044668
   5 C :    0.028841
   6 C :    0.068336
   7 C :   -0.049787
   8 C :   -0.367202
   9 N :    0.430423
  10 N :    0.390397
  11 C :   -0.362354
  12 O :    0.049257
  13 C :    0.121013
  14 O :    0.056391
  15 H :   -0.026834
  16 H :   -0.009860
  17 H :   -0.008720
  18 H :   -0.013302
  19 H :   -0.073704
  20 H :   -0.075092
  21 H :   -0.084312
  22 H :   -0.012766
  23 H :   -0.017377
  24 H :   -0.019753
  25 H :   -0.026374
  26 H :   -0.025816
  27 H :   -0.024379
  28 H :   -0.026648

  Mayer bond orders larger than 0.1
B(  0-C ,  1-C ) :   1.3752 B(  0-C ,  5-C ) :   1.3736 B(  0-C , 28-H ) :   0.9785
B(  1-C ,  2-C ) :   1.3938 B(  1-C , 26-H ) :   0.9784 B(  2-C ,  3-C ) :   1.3538
B(  2-C , 25-H ) :   0.9785 B(  3-C ,  4-C ) :   1.3829 B(  3-C ,  6-C ) :   0.9916
B(  4-C ,  5-C ) :   1.3828 B(  4-C , 24-H ) :   0.9541 B(  5-C , 27-H ) :   0.9783
B(  6-C ,  7-C ) :   0.9474 B(  6-C , 22-H ) :   0.9666 B(  6-C , 23-H ) :   0.9968
B(  7-C ,  8-C ) :   0.9005 B(  7-C , 10-N ) :   0.9121 B(  7-C , 18-H ) :   0.9618
B(  8-C ,  9-N ) :   1.2767 B(  8-C , 14-O ) :   2.0048 B(  9-N , 19-H ) :   0.9538
B(  9-N , 21-H ) :   0.9210 B( 10-N , 11-C ) :   1.2308 B( 10-N , 20-H ) :   0.9581
B( 11-C , 12-O ) :   1.8962 B( 11-C , 13-C ) :   0.9399 B( 13-C , 15-H ) :   0.9876
B( 13-C , 16-H ) :   0.9672 B( 13-C , 17-H ) :   0.9676

E(0)                                       ...   -683.611945809
E(0)                                       ...   -683.611945809
E(CORR)(strong-pairs)                      ...     -2.695667503
E(CORR)(weak-pairs)                        ...     -0.004132051
E(CORR)(corrected)                         ...     -2.699799554
E(TOT)                                     ...   -686.311745363
E(CCSD(T))                                 ...   -686.437287537
FINAL SINGLE POINT ENERGY      -686.437287537382

DIPOLE MOMENT
-------------
                                X             Y             Z
Electronic contribution:      2.30974       3.15101       1.29739
Nuclear contribution   :     -3.13625      -3.93026      -1.82686
                        -----------------------------------------
Total Dipole Moment    :     -0.82652      -0.77925      -0.52947
                        -----------------------------------------
Magnitude (a.u.)       :      1.25328
Magnitude (Debye)      :      3.18558

Rotational constants in cm-1:     0.039320     0.010515     0.009479
Rotational constants in MHz :  1178.776086   315.244915   284.175267

                             ****ORCA TERMINATED NORMALLY****
TOTAL RUN TIME: 0 days 1 hours 46 minutes 50 seconds 335 msec
