                         Program Version 4.1.x  -  STABLE  -
|  1> ! RHF DLPNO-CCSD(T) cc-pVTZ RIJK cc-pVTZ/JK cc-pVTZ/C
|  2> ! KDIIS SOSCF TightSCF TightPNO
|  3>
|  4> %pal nprocs 8 end
|  5>
|  6> %maxcore 8000
|  7>
|  8> %scf maxiter 300
|  9>      shift shift 0.2 erroff 0.1 end
| 10> end
| 11>
| 12> * xyzfile 0 1 NAPA_g_plus.xyz
| 13>
| 14>
| 15>                          ****END OF INPUT****

CARTESIAN COORDINATES (ANGSTROEM)
---------------------------------
  C     -3.786680    0.631320   -0.794520
  C     -3.209040   -0.617060   -1.047870
  C     -2.097270   -1.045520   -0.319120
  C     -1.541230   -0.230390    0.681860
  C     -2.134020    1.018760    0.930290
  C     -3.246390    1.449710    0.199420
  C     -0.334240   -0.671850    1.492970
  C      1.039040   -0.539560    0.792480
  C      1.370960   -1.760410   -0.111710
  N      2.588240   -1.695410   -0.704880
  N      1.135120    0.736050    0.081300
  C      2.297890    1.406490   -0.130420
  O      3.397270    0.936670    0.189380
  C      2.180410    2.767190   -0.788070
  O      0.608200   -2.715270   -0.238470
  H      2.616890    3.514600   -0.119330
  H      1.151410    3.053050   -1.021470
  H      2.771360    2.765690   -1.708240
  H      1.820440   -0.523320    1.562440
  H      2.886560   -2.481100   -1.264580
  H      0.267840    1.135170   -0.254330
  H      3.228360   -0.932970   -0.496460
  H     -0.293440   -0.074570    2.409710
  H     -0.444080   -1.719780    1.783870
  H     -1.730830    1.654010    1.716210
  H     -1.645900   -2.011690   -0.519710
  H     -3.627750   -1.263210   -1.814420
  H     -3.691720    2.417220    0.413950
  H     -4.653090    0.959120   -1.361810

 Total Charge           Charge          ....    0
 Multiplicity           Mult            ....    1
 Number of Electrons    NEL             ....  110
 Basis Dimension        Dim             ....  646

ORBITAL ENERGIES
----------------

  NO   OCC          E(Eh)            E(eV)
   0   2.0000     -20.528227      -558.6014
   1   2.0000     -20.516878      -558.2926
   2   2.0000     -15.600974      -424.5241
   3   2.0000     -15.569935      -423.6795
   4   2.0000     -11.368067      -309.3408
   5   2.0000     -11.350743      -308.8694
   6   2.0000     -11.294624      -307.3423
   7   2.0000     -11.249467      -306.1136
   8   2.0000     -11.248363      -306.0835
   9   2.0000     -11.243127      -305.9410
  10   2.0000     -11.241677      -305.9016
  11   2.0000     -11.240278      -305.8635
  12   2.0000     -11.238894      -305.8259
  13   2.0000     -11.237514      -305.7883
  14   2.0000     -11.230973      -305.6103
  15   2.0000      -1.389124       -37.8000
  16   2.0000      -1.373254       -37.3682
  17   2.0000      -1.248697       -33.9788
  18   2.0000      -1.199473       -32.6393
  19   2.0000      -1.155533       -31.4437
  20   2.0000      -1.072784       -29.1919
  21   2.0000      -1.024064       -27.8662
  22   2.0000      -1.014775       -27.6134
  23   2.0000      -0.984985       -26.8028
  24   2.0000      -0.900813       -24.5124
  25   2.0000      -0.829673       -22.5765
  26   2.0000      -0.817220       -22.2377
  27   2.0000      -0.807294       -21.9676
  28   2.0000      -0.774445       -21.0737
  29   2.0000      -0.728258       -19.8169
  30   2.0000      -0.704698       -19.1758
  31   2.0000      -0.694322       -18.8935
  32   2.0000      -0.670425       -18.2432
  33   2.0000      -0.663600       -18.0575
  34   2.0000      -0.635033       -17.2801
  35   2.0000      -0.631372       -17.1805
  36   2.0000      -0.618249       -16.8234
  37   2.0000      -0.601196       -16.3594
  38   2.0000      -0.593678       -16.1548
  39   2.0000      -0.584801       -15.9133
  40   2.0000      -0.583799       -15.8860
  41   2.0000      -0.564970       -15.3736
  42   2.0000      -0.552539       -15.0353
  43   2.0000      -0.542307       -14.7569
  44   2.0000      -0.531756       -14.4698
  45   2.0000      -0.522947       -14.2301
  46   2.0000      -0.494321       -13.4512
  47   2.0000      -0.487335       -13.2611
  48   2.0000      -0.485779       -13.2187
  49   2.0000      -0.447101       -12.1662
  50   2.0000      -0.437163       -11.8958
  51   2.0000      -0.406734       -11.0678
  52   2.0000      -0.394035       -10.7222
  53   2.0000      -0.339881        -9.2486
  54   2.0000      -0.332872        -9.0579
  55   0.0000       0.116286         3.1643
  56   0.0000       0.119018         3.2387
  57   0.0000       0.124878         3.3981
  58   0.0000       0.148966         4.0536
  59   0.0000       0.154998         4.2177

MULLIKEN ATOMIC CHARGES
-----------------------
   0 C :   -0.164535
   1 C :   -0.141335
   2 C :   -0.186457
   3 C :   -0.002712
   4 C :   -0.213895
   5 C :   -0.145017
   6 C :   -0.204244
   7 C :   -0.018429
   8 C :    0.347010
   9 N :   -0.336195
  10 N :   -0.247192
  11 C :    0.335042
  12 O :   -0.499837
  13 C :   -0.273849
  14 O :   -0.454021
  15 H :    0.120652
  16 H :    0.095467
  17 H :    0.118363
  18 H :    0.153269
  19 H :    0.185053
  20 H :    0.206839
  21 H :    0.239203
  22 H :    0.124543
  23 H :    0.144191
  24 H :    0.153452
  25 H :    0.199805
  26 H :    0.156231
  27 H :    0.154125
  28 H :    0.154472
Sum of atomic charges:   -0.0000000

LOEWDIN ATOMIC CHARGES
----------------------
   0 C :    0.024099
   1 C :    0.030246
   2 C :    0.046793
   3 C :   -0.048180
   4 C :    0.018367
   5 C :    0.021047
   6 C :    0.077014
   7 C :   -0.046626
   8 C :   -0.368074
   9 N :    0.432268
  10 N :    0.393677
  11 C :   -0.361495
  12 O :    0.049522
  13 C :    0.121638
  14 O :    0.058448
  15 H :   -0.009334
  16 H :   -0.025338
  17 H :   -0.010169
  18 H :   -0.008689
  19 H :   -0.074856
  20 H :   -0.079398
  21 H :   -0.097422
  22 H :   -0.014789
  23 H :   -0.005603
  24 H :   -0.027639
  25 H :   -0.021287
  26 H :   -0.022972
  27 H :   -0.025498
  28 H :   -0.025750

  Mayer bond orders larger than 0.1
B(  0-C ,  1-C ) :   1.3615 B(  0-C ,  5-C ) :   1.3862 B(  0-C , 28-H ) :   0.9773
B(  1-C ,  2-C ) :   1.3872 B(  1-C , 26-H ) :   0.9776 B(  2-C ,  3-C ) :   1.3934
B(  2-C , 25-H ) :   0.9422 B(  3-C ,  4-C ) :   1.3443 B(  3-C ,  6-C ) :   0.9795
B(  4-C ,  5-C ) :   1.3740 B(  4-C , 24-H ) :   0.9770 B(  5-C , 27-H ) :   0.9774
B(  6-C ,  7-C ) :   0.9424 B(  6-C , 22-H ) :   1.0043 B(  6-C , 23-H ) :   0.9741
B(  7-C ,  8-C ) :   0.9040 B(  7-C , 10-N ) :   0.9121 B(  7-C , 18-H ) :   0.9669
B(  8-C ,  9-N ) :   1.3077 B(  8-C , 14-O ) :   1.9754 B(  9-N , 19-H ) :   0.9512
B(  9-N , 21-H ) :   0.9066 B( 10-N , 11-C ) :   1.2567 B( 10-N , 20-H ) :   0.9407
B( 11-C , 12-O ) :   1.8677 B( 11-C , 13-C ) :   0.9443 B( 13-C , 15-H ) :   0.9676
B( 13-C , 16-H ) :   0.9864 B( 13-C , 17-H ) :   0.9676

E(0)                                       ...   -683.610837203
E(0)                                       ...   -683.610837203
E(CORR)(strong-pairs)                      ...     -2.697609235
E(CORR)(weak-pairs)                        ...     -0.004288877
E(CORR)(corrected)                         ...     -2.701898112
E(TOT)                                     ...   -686.312735315
E(CCSD(T))                                 ...   -686.438648415
FINAL SINGLE POINT ENERGY      -686.438648415057

DIPOLE MOMENT
-------------
                                X             Y             Z
Electronic contribution:      0.89714      -5.09468       0.41665
Nuclear contribution   :     -1.26104       6.46930      -0.67972
                        -----------------------------------------
Total Dipole Moment    :     -0.36390       1.37461      -0.26307
                        -----------------------------------------
Magnitude (a.u.)       :      1.44609
Magnitude (Debye)      :      3.67568

Rotational constants in cm-1:     0.029370     0.013742     0.010734
Rotational constants in MHz :   880.483387   411.976705   321.812033

                             ****ORCA TERMINATED NORMALLY****
TOTAL RUN TIME: 0 days 1 hours 48 minutes 19 seconds 321 msec
