                         Program Version 4.1.x  -  STABLE  -
|  1> ! RHF DLPNO-CCSD(T) cc-pVTZ RIJK cc-pVTZ/JK cc-pVTZ/C
|  2> ! KDIIS SOSCF TightSCF TightPNO
|  3>
|  4> %pal nprocs 8 end
|  5>
|  6> %maxcore 8000
|  7>
|  8> %scf maxiter 300
|  9>      shift shift 0.2 erroff 0.1 end
| 10> end
| 11>
| 12> * xyzfile 0 1 NAPA_g_.xyz
| 13>
| 14>
| 15>                          ****END OF INPUT****

CARTESIAN COORDINATES (ANGSTROEM)
---------------------------------
  C     -4.041310    0.427200    0.259490
  C     -3.569970    0.096830   -1.012270
  C     -2.326220   -0.526980   -1.158320
  C     -1.533170   -0.830250   -0.042600
  C     -2.024190   -0.499580    1.230700
  C     -3.263760    0.123820    1.382150
  C     -0.185280   -1.501520   -0.211380
  C      1.007280   -0.624610    0.203390
  C      2.345850   -1.378740   -0.023590
  N      3.405490   -0.821320    0.616980
  N      1.001550    0.647150   -0.526430
  C      1.549910    1.789160   -0.029790
  O      2.203210    1.798620    1.020210
  C      1.324080    3.053770   -0.833960
  O      2.418540   -2.392760   -0.710710
  H      0.792760    3.773960   -0.205130
  H      0.752560    2.892810   -1.751900
  H      2.294740    3.489580   -1.085710
  H      0.941290   -0.370710    1.267310
  H      4.322060   -1.207810    0.441030
  H      0.452660    0.700000   -1.372830
  H      3.310430    0.093320    1.051190
  H     -0.136280   -2.416810    0.387930
  H     -0.042610   -1.822390   -1.248140
  H     -1.433520   -0.735490    2.112850
  H     -1.975260   -0.796060   -2.152380
  H     -4.169120    0.317930   -1.891150
  H     -3.625330    0.369540    2.376650
  H     -5.007040    0.909820    0.377620

 Total Charge           Charge          ....    0
 Multiplicity           Mult            ....    1
 Number of Electrons    NEL             ....  110
 Basis Dimension        Dim             ....  646

ORBITAL ENERGIES
----------------

  NO   OCC          E(Eh)            E(eV)
   0   2.0000     -20.528240      -558.6018
   1   2.0000     -20.514615      -558.2311
   2   2.0000     -15.602488      -424.5653
   3   2.0000     -15.568515      -423.6408
   4   2.0000     -11.367847      -309.3349
   5   2.0000     -11.347690      -308.7863
   6   2.0000     -11.292678      -307.2894
   7   2.0000     -11.252697      -306.2015
   8   2.0000     -11.249354      -306.1105
   9   2.0000     -11.244911      -305.9896
  10   2.0000     -11.244474      -305.9777
  11   2.0000     -11.242663      -305.9284
  12   2.0000     -11.242010      -305.9106
  13   2.0000     -11.241018      -305.8836
  14   2.0000     -11.240775      -305.8770
  15   2.0000      -1.389041       -37.7977
  16   2.0000      -1.370547       -37.2945
  17   2.0000      -1.248223       -33.9659
  18   2.0000      -1.198174       -32.6040
  19   2.0000      -1.160228       -31.5714
  20   2.0000      -1.075970       -29.2786
  21   2.0000      -1.025339       -27.9009
  22   2.0000      -1.019903       -27.7530
  23   2.0000      -0.985699       -26.8222
  24   2.0000      -0.901498       -24.5310
  25   2.0000      -0.834836       -22.7170
  26   2.0000      -0.817494       -22.2451
  27   2.0000      -0.804557       -21.8931
  28   2.0000      -0.777236       -21.1497
  29   2.0000      -0.724721       -19.7207
  30   2.0000      -0.708517       -19.2797
  31   2.0000      -0.688838       -18.7442
  32   2.0000      -0.679100       -18.4793
  33   2.0000      -0.664244       -18.0750
  34   2.0000      -0.639094       -17.3906
  35   2.0000      -0.634107       -17.2549
  36   2.0000      -0.618467       -16.8293
  37   2.0000      -0.599128       -16.3031
  38   2.0000      -0.594892       -16.1878
  39   2.0000      -0.591674       -16.1003
  40   2.0000      -0.583544       -15.8790
  41   2.0000      -0.566063       -15.4034
  42   2.0000      -0.554403       -15.0861
  43   2.0000      -0.544595       -14.8192
  44   2.0000      -0.530407       -14.4331
  45   2.0000      -0.517543       -14.0831
  46   2.0000      -0.497998       -13.5512
  47   2.0000      -0.493000       -13.4152
  48   2.0000      -0.491548       -13.3757
  49   2.0000      -0.445855       -12.1323
  50   2.0000      -0.436654       -11.8820
  51   2.0000      -0.405009       -11.0208
  52   2.0000      -0.393763       -10.7148
  53   2.0000      -0.344341        -9.3700
  54   2.0000      -0.335696        -9.1348
  55   0.0000       0.109737         2.9861
  56   0.0000       0.117728         3.2036
  57   0.0000       0.125571         3.4170
  58   0.0000       0.143252         3.8981
  59   0.0000       0.150556         4.0968

MULLIKEN ATOMIC CHARGES
-----------------------
   0 C :   -0.171001
   1 C :   -0.134261
   2 C :   -0.209867
   3 C :    0.059143
   4 C :   -0.192531
   5 C :   -0.134659
   6 C :   -0.227924
   7 C :   -0.023864
   8 C :    0.339324
   9 N :   -0.336086
  10 N :   -0.241990
  11 C :    0.347486
  12 O :   -0.500959
  13 C :   -0.266644
  14 O :   -0.444928
  15 H :    0.121739
  16 H :    0.091311
  17 H :    0.119055
  18 H :    0.148453
  19 H :    0.183754
  20 H :    0.188295
  21 H :    0.238595
  22 H :    0.138357
  23 H :    0.139681
  24 H :    0.149767
  25 H :    0.156434
  26 H :    0.154343
  27 H :    0.154665
  28 H :    0.154310
Sum of atomic charges:    0.0000000

LOEWDIN ATOMIC CHARGES
----------------------
   0 C :    0.023508
   1 C :    0.028771
   2 C :    0.021625
   3 C :   -0.041802
   4 C :    0.034342
   5 C :    0.032654
   6 C :    0.070821
   7 C :   -0.052112
   8 C :   -0.369405
   9 N :    0.428093
  10 N :    0.394877
  11 C :   -0.358181
  12 O :    0.051727
  13 C :    0.122423
  14 O :    0.057274
  15 H :   -0.008334
  16 H :   -0.026213
  17 H :   -0.010227
  18 H :   -0.016450
  19 H :   -0.075359
  20 H :   -0.076630
  21 H :   -0.094739
  22 H :   -0.003160
  23 H :   -0.010018
  24 H :   -0.023646
  25 H :   -0.027148
  26 H :   -0.024099
  27 H :   -0.022925
  28 H :   -0.025667

  Mayer bond orders larger than 0.1
B(  0-C ,  1-C ) :   1.3894 B(  0-C ,  5-C ) :   1.3625 B(  0-C , 28-H ) :   0.9772
B(  1-C ,  2-C ) :   1.3768 B(  1-C , 26-H ) :   0.9766 B(  2-C ,  3-C ) :   1.3622
B(  2-C , 25-H ) :   0.9715 B(  3-C ,  4-C ) :   1.3574 B(  3-C ,  6-C ) :   0.9513
B(  4-C ,  5-C ) :   1.4028 B(  4-C , 24-H ) :   0.9751 B(  5-C , 27-H ) :   0.9767
B(  6-C ,  7-C ) :   0.9453 B(  6-C , 22-H ) :   0.9826 B(  6-C , 23-H ) :   0.9920
B(  7-C ,  8-C ) :   0.9086 B(  7-C , 10-N ) :   0.9092 B(  7-C , 18-H ) :   0.9599
B(  8-C ,  9-N ) :   1.2932 B(  8-C , 14-O ) :   2.0215 B(  9-N , 19-H ) :   0.9538
B(  9-N , 21-H ) :   0.9114 B( 10-N , 11-C ) :   1.2401 B( 10-N , 20-H ) :   0.9579
B( 11-C , 12-O ) :   1.8685 B( 11-C , 13-C ) :   0.9433 B( 13-C , 15-H ) :   0.9670
B( 13-C , 16-H ) :   0.9875 B( 13-C , 17-H ) :   0.9681

E(0)                                       ...   -683.611877544
E(0)                                       ...   -683.611877544
E(CORR)(strong-pairs)                      ...     -2.695892403
E(CORR)(weak-pairs)                        ...     -0.004374278
E(CORR)(corrected)                         ...     -2.700266680
E(TOT)                                     ...   -686.312144225
E(CCSD(T))                                 ...   -686.437690069
FINAL SINGLE POINT ENERGY      -686.437690069451

DIPOLE MOMENT
-------------
                                X             Y             Z
Electronic contribution:      2.56692      -4.00295       1.26086
Nuclear contribution   :     -3.42962       5.19593      -1.69007
                        -----------------------------------------
Total Dipole Moment    :     -0.86271       1.19298      -0.42921
                        -----------------------------------------
Magnitude (a.u.)       :      1.53352
Magnitude (Debye)      :      3.89789

Rotational constants in cm-1:     0.029442     0.012595     0.010373
Rotational constants in MHz :   882.658450   377.599266   310.975608

                             ****ORCA TERMINATED NORMALLY****
TOTAL RUN TIME: 0 days 1 hours 32 minutes 47 seconds 959 msec
