                         Program Version 4.1.x  -  STABLE  -
|  1> ! RHF DLPNO-CCSD(T) cc-pVTZ RIJK cc-pVTZ/JK cc-pVTZ/C
|  2> ! KDIIS SOSCF TightSCF TightPNO
|  3>
|  4> %pal nprocs 8 end
|  5>
|  6> %maxcore 8000
|  7>
|  8> %scf maxiter 300
|  9>      shift shift 0.2 erroff 0.1 end
| 10> end
| 11>
| 12> * xyzfile 0 1 NAPA_b.xyz
| 13>
| 14>
| 15>                          ****END OF INPUT****

CARTESIAN COORDINATES (ANGSTROEM)
---------------------------------
  C     -4.124600   -0.729530   -0.250480
  C     -3.122460   -1.522810   -0.818660
  C     -1.790590   -1.356840   -0.431550
  C     -1.434090   -0.391070    0.525930
  C     -2.449520    0.395880    1.089310
  C     -3.784400    0.228400    0.707830
  C      0.013820   -0.223350    0.934120
  C      0.943450    0.356690   -0.179110
  C      0.723730    1.862450   -0.393750
  N     -0.395980    2.207900   -1.079560
  N      2.341870    0.176150    0.157290
  C      2.980930   -1.011860   -0.033330
  O      2.390860   -2.011850   -0.447240
  C      4.460650   -1.034260    0.304710
  O      1.523440    2.694280    0.032120
  H      4.848310   -0.064970    0.629790
  H      5.015620   -1.367320   -0.576690
  H      4.629100   -1.770330    1.096190
  H      0.739260   -0.185160   -1.109280
  H     -0.623970    3.189710   -1.148240
  H      2.840790    1.016980    0.424700
  H     -1.106070    1.529210   -1.312110
  H      0.093530    0.409230    1.824840
  H      0.434280   -1.202010    1.184450
  H     -2.193200    1.142890    1.836580
  H     -1.019310   -1.991390   -0.861910
  H     -3.378570   -2.278340   -1.556010
  H     -4.556040    0.844070    1.161460
  H     -5.160910   -0.862560   -0.547070

 Total Charge           Charge          ....    0
 Multiplicity           Mult            ....    1
 Number of Electrons    NEL             ....  110
 Basis Dimension        Dim             ....  646

ORBITAL ENERGIES
----------------

  NO   OCC          E(Eh)            E(eV)
   0   2.0000     -20.530351      -558.6592
   1   2.0000     -20.511640      -558.1501
   2   2.0000     -15.591650      -424.2704
   3   2.0000     -15.582287      -424.0156
   4   2.0000     -11.364750      -309.2506
   5   2.0000     -11.350945      -308.8749
   6   2.0000     -11.291623      -307.2607
   7   2.0000     -11.252721      -306.2021
   8   2.0000     -11.245466      -306.0047
   9   2.0000     -11.244966      -305.9911
  10   2.0000     -11.244254      -305.9717
  11   2.0000     -11.242815      -305.9326
  12   2.0000     -11.242510      -305.9243
  13   2.0000     -11.240971      -305.8824
  14   2.0000     -11.236894      -305.7714
  15   2.0000      -1.390533       -37.8383
  16   2.0000      -1.370411       -37.2908
  17   2.0000      -1.232968       -33.5508
  18   2.0000      -1.219830       -33.1933
  19   2.0000      -1.161073       -31.5944
  20   2.0000      -1.072810       -29.1927
  21   2.0000      -1.021261       -27.7899
  22   2.0000      -1.019616       -27.7452
  23   2.0000      -0.976355       -26.5680
  24   2.0000      -0.907232       -24.6870
  25   2.0000      -0.835114       -22.7246
  26   2.0000      -0.816160       -22.2088
  27   2.0000      -0.805179       -21.9100
  28   2.0000      -0.780242       -21.2315
  29   2.0000      -0.741488       -20.1769
  30   2.0000      -0.703749       -19.1500
  31   2.0000      -0.688425       -18.7330
  32   2.0000      -0.663596       -18.0574
  33   2.0000      -0.648950       -17.6588
  34   2.0000      -0.641238       -17.4490
  35   2.0000      -0.639784       -17.4094
  36   2.0000      -0.624654       -16.9977
  37   2.0000      -0.602885       -16.4053
  38   2.0000      -0.592529       -16.1235
  39   2.0000      -0.589690       -16.0463
  40   2.0000      -0.581670       -15.8281
  41   2.0000      -0.566548       -15.4165
  42   2.0000      -0.550050       -14.9676
  43   2.0000      -0.546651       -14.8751
  44   2.0000      -0.539616       -14.6837
  45   2.0000      -0.507782       -13.8174
  46   2.0000      -0.497488       -13.5373
  47   2.0000      -0.494538       -13.4571
  48   2.0000      -0.487324       -13.2608
  49   2.0000      -0.438203       -11.9241
  50   2.0000      -0.426559       -11.6073
  51   2.0000      -0.421051       -11.4574
  52   2.0000      -0.392881       -10.6908
  53   2.0000      -0.344943        -9.3864
  54   2.0000      -0.335426        -9.1274
  55   0.0000       0.111925         3.0456
  56   0.0000       0.117242         3.1903
  57   0.0000       0.134594         3.6625
  58   0.0000       0.142882         3.8880
  59   0.0000       0.152432         4.1479

MULLIKEN ATOMIC CHARGES
-----------------------
   0 C :   -0.168748
   1 C :   -0.142519
   2 C :   -0.189799
   3 C :   -0.044885
   4 C :   -0.174111
   5 C :   -0.139197
   6 C :   -0.183910
   7 C :    0.006310
   8 C :    0.339792
   9 N :   -0.311302
  10 N :   -0.254994
  11 C :    0.319112
  12 O :   -0.478431
  13 C :   -0.275034
  14 O :   -0.461755
  15 H :    0.094124
  16 H :    0.117571
  17 H :    0.115147
  18 H :    0.150251
  19 H :    0.189829
  20 H :    0.207086
  21 H :    0.216651
  22 H :    0.114757
  23 H :    0.149453
  24 H :    0.154706
  25 H :    0.178825
  26 H :    0.158568
  27 H :    0.156087
  28 H :    0.156418
Sum of atomic charges:    0.0000000

LOEWDIN ATOMIC CHARGES
----------------------
   0 C :    0.023338
   1 C :    0.028564
   2 C :    0.033595
   3 C :   -0.049930
   4 C :    0.028118
   5 C :    0.026107
   6 C :    0.076644
   7 C :   -0.053698
   8 C :   -0.359094
   9 N :    0.438272
  10 N :    0.392569
  11 C :   -0.370745
  12 O :    0.038682
  13 C :    0.117751
  14 O :    0.056463
  15 H :   -0.026305
  16 H :   -0.011862
  17 H :   -0.012322
  18 H :   -0.016268
  19 H :   -0.067819
  20 H :   -0.081817
  21 H :   -0.073945
  22 H :   -0.016386
  23 H :   -0.006813
  24 H :   -0.024592
  25 H :   -0.016768
  26 H :   -0.022585
  27 H :   -0.023906
  28 H :   -0.025248

  Mayer bond orders larger than 0.1
B(  0-C ,  1-C ) :   1.3663 B(  0-C ,  5-C ) :   1.3817 B(  0-C , 28-H ) :   0.9767
B(  1-C ,  2-C ) :   1.3873 B(  1-C , 26-H ) :   0.9759 B(  2-C ,  3-C ) :   1.3682
B(  2-C , 25-H ) :   0.9611 B(  3-C ,  4-C ) :   1.3582 B(  3-C ,  6-C ) :   0.9683
B(  4-C ,  5-C ) :   1.3795 B(  4-C , 24-H ) :   0.9719 B(  5-C , 27-H ) :   0.9770
B(  6-C ,  7-C ) :   0.9250 B(  6-C , 22-H ) :   0.9894 B(  6-C , 23-H ) :   0.9693
B(  7-C ,  8-C ) :   0.9261 B(  7-C , 10-N ) :   0.9561 B(  7-C , 18-H ) :   0.9670
B(  8-C ,  9-N ) :   1.2689 B(  8-C , 14-O ) :   1.9791 B(  9-N , 19-H ) :   0.9490
B(  9-N , 21-H ) :   0.9436 B( 10-N , 11-C ) :   1.2324 B( 10-N , 20-H ) :   0.9308
B( 11-C , 12-O ) :   1.9429 B( 11-C , 13-C ) :   0.9418 B( 13-C , 15-H ) :   0.9855
B( 13-C , 16-H ) :   0.9701 B( 13-C , 17-H ) :   0.9692

E(0)                                       ...   -683.613401727
E(0)                                       ...   -683.613401727
E(CORR)(strong-pairs)                      ...     -2.695224611
E(CORR)(weak-pairs)                        ...     -0.004202063
E(CORR)(corrected)                         ...     -2.699426674
E(TOT)                                     ...   -686.312828401
E(CCSD(T))                                 ...   -686.438213830
FINAL SINGLE POINT ENERGY      -686.438213829976

DIPOLE MOMENT
-------------
                                X             Y             Z
Electronic contribution:     -1.43507       2.06787      -1.05547
Nuclear contribution   :      0.63701      -1.56784       1.03647
                        -----------------------------------------
Total Dipole Moment    :     -0.79806       0.50003      -0.01900
                        -----------------------------------------
Magnitude (a.u.)       :      0.94196
Magnitude (Debye)      :      2.39427

Rotational constants in cm-1:     0.033762     0.011762     0.009594
Rotational constants in MHz :  1012.163239   352.605041   287.629296

                             ****ORCA TERMINATED NORMALLY****
TOTAL RUN TIME: 0 days 1 hours 49 minutes 24 seconds 71 msec
