                         Program Version 4.1.x  -  STABLE  -
|  1> ! RHF DLPNO-CCSD(T) cc-pVTZ RIJK cc-pVTZ/JK cc-pVTZ/C
|  2> ! KDIIS SOSCF TightSCF TightPNO
|  3>
|  4> %pal nprocs 8 end
|  5>
|  6> %maxcore 8000
|  7>
|  8> %scf maxiter 300
|  9>      shift shift 0.2 erroff 0.1 end
| 10> end
| 11>
| 12> * xyzfile 0 1 P_Me_phosphorinane_ax.xyz
| 13>
| 14>
| 15>                          ****END OF INPUT****

CARTESIAN COORDINATES (ANGSTROEM)
---------------------------------
  C      1.863310   -0.000020    1.151780
  P      1.244700   -0.000030   -0.613800
  C      0.020930   -1.425630   -0.576410
  C     -1.178700   -1.284460    0.375220
  C     -1.990550    0.000040    0.142720
  C     -1.178630    1.284500    0.375200
  C      0.021030    1.425610   -0.576420
  H      0.590030    2.337170   -0.354660
  H     -0.338410    1.539660   -1.608230
  H     -1.834820    2.157220    0.254000
  H     -0.834010    1.309080    1.417790
  H     -2.380930    0.000050   -0.886220
  H     -2.866270    0.000090    0.803930
  H     -1.834950   -2.157140    0.254010
  H     -0.834080   -1.309070    1.417800
  H     -0.338530   -1.539650   -1.608220
  H      0.589900   -2.337210   -0.354670
  H      1.078940    0.000020    1.914690
  H      2.494160   -0.882350    1.302100
  H      2.494220    0.882280    1.302050

 Total Charge           Charge          ....    0
 Multiplicity           Mult            ....    1
 Number of Electrons    NEL             ....   64
 Basis Dimension        Dim             ....  396

ORBITAL ENERGIES
----------------

  NO   OCC          E(Eh)            E(eV)
   0   2.0000     -79.925150     -2174.8739
   1   2.0000     -11.223678      -305.4118
   2   2.0000     -11.223632      -305.4106
   3   2.0000     -11.222344      -305.3755
   4   2.0000     -11.222342      -305.3755
   5   2.0000     -11.220719      -305.3313
   6   2.0000     -11.217722      -305.2497
   7   2.0000      -7.465074      -203.1350
   8   2.0000      -5.358789      -145.8201
   9   2.0000      -5.358737      -145.8186
  10   2.0000      -5.357674      -145.7897
  11   2.0000      -1.091686       -29.7063
  12   2.0000      -1.003824       -27.3154
  13   2.0000      -0.981335       -26.7035
  14   2.0000      -0.922413       -25.1001
  15   2.0000      -0.830389       -22.5960
  16   2.0000      -0.789914       -21.4947
  17   2.0000      -0.702207       -19.1080
  18   2.0000      -0.629277       -17.1235
  19   2.0000      -0.604367       -16.4457
  20   2.0000      -0.602250       -16.3880
  21   2.0000      -0.563335       -15.3291
  22   2.0000      -0.554901       -15.0996
  23   2.0000      -0.554617       -15.0919
  24   2.0000      -0.532799       -14.4982
  25   2.0000      -0.504885       -13.7386
  26   2.0000      -0.481228       -13.0949
  27   2.0000      -0.474567       -12.9136
  28   2.0000      -0.467751       -12.7281
  29   2.0000      -0.433986       -11.8094
  30   2.0000      -0.406239       -11.0543
  31   2.0000      -0.321376        -8.7451
  32   0.0000       0.132646         3.6095
  33   0.0000       0.148050         4.0286
  34   0.0000       0.161013         4.3814
  35   0.0000       0.166537         4.5317
  36   0.0000       0.176309         4.7976

MULLIKEN ATOMIC CHARGES
-----------------------
   0 C :   -0.373600
   1 P :    0.127186
   2 C :   -0.278249
   3 C :   -0.200470
   4 C :   -0.186028
   5 C :   -0.200474
   6 C :   -0.278241
   7 H :    0.114976
   8 H :    0.108673
   9 H :    0.116694
  10 H :    0.097719
  11 H :    0.086435
  12 H :    0.109644
  13 H :    0.116690
  14 H :    0.097727
  15 H :    0.108670
  16 H :    0.114979
  17 H :    0.099744
  18 H :    0.108963
  19 H :    0.108961
Sum of atomic charges:    0.0000000

LOEWDIN ATOMIC CHARGES
----------------------
   0 C :   -0.025586
   1 P :    0.492347
   2 C :   -0.069329
   3 C :    0.035835
   4 C :    0.053723
   5 C :    0.035839
   6 C :   -0.069339
   7 H :   -0.038776
   8 H :   -0.038210
   9 H :   -0.025798
  10 H :   -0.029430
  11 H :   -0.026927
  12 H :   -0.025238
  13 H :   -0.025794
  14 H :   -0.029433
  15 H :   -0.038209
  16 H :   -0.038779
  17 H :   -0.054875
  18 H :   -0.041011
  19 H :   -0.041009

  Mayer bond orders larger than 0.1
B(  0-C ,  1-P ) :   0.9747 B(  0-C , 17-H ) :   0.9679 B(  0-C , 18-H ) :   0.9729
B(  0-C , 19-H ) :   0.9729 B(  1-P ,  2-C ) :   0.9896 B(  1-P ,  6-C ) :   0.9896
B(  2-C ,  3-C ) :   0.9340 B(  2-C , 15-H ) :   0.9772 B(  2-C , 16-H ) :   0.9810
B(  3-C ,  4-C ) :   0.9455 B(  3-C , 13-H ) :   0.9879 B(  3-C , 14-H ) :   0.9813
B(  4-C ,  5-C ) :   0.9455 B(  4-C , 11-H ) :   0.9849 B(  4-C , 12-H ) :   0.9943
B(  5-C ,  6-C ) :   0.9340 B(  5-C ,  9-H ) :   0.9879 B(  5-C , 10-H ) :   0.9813
B(  6-C ,  7-H ) :   0.9810 B(  6-C ,  8-H ) :   0.9772

E(0)                                       ...   -575.617164842
E(0)                                       ...   -575.617164842
E(CORR)(strong-pairs)                      ...     -1.271950278
E(CORR)(weak-pairs)                        ...     -0.001215067
E(CORR)(corrected)                         ...     -1.273165345
E(TOT)                                     ...   -576.890330187
E(CCSD(T))                                 ...   -576.943413896
FINAL SINGLE POINT ENERGY      -576.943413896190

DIPOLE MOMENT
-------------
                                X             Y             Z
Electronic contribution:      4.93405      -0.00017      -4.19850
Nuclear contribution   :     -5.38164       0.00020       4.59384
                        -----------------------------------------
Total Dipole Moment    :     -0.44758       0.00002       0.39535
                        -----------------------------------------
Magnitude (a.u.)       :      0.59719
Magnitude (Debye)      :      1.51792

Rotational constants in cm-1:     0.095976     0.063730     0.051683
Rotational constants in MHz :  2877.286548  1910.581981  1549.404183

                             ****ORCA TERMINATED NORMALLY****
TOTAL RUN TIME: 0 days 0 hours 13 minutes 7 seconds 261 msec
