                         Program Version 4.1.x  -  STABLE  -
|  1> ! RHF DLPNO-CCSD(T) cc-pVTZ RIJK cc-pVTZ/JK cc-pVTZ/C
|  2> ! KDIIS SOSCF TightSCF TightPNO
|  3>
|  4> %pal nprocs 8 end
|  5>
|  6> %maxcore 8000
|  7>
|  8> %scf maxiter 300
|  9>      shift shift 0.2 erroff 0.1 end
| 10> end
| 11>
| 12> * xyzfile 0 1 P_Me_phosphorinane_eq.xyz
| 13>
| 14>
| 15>                          ****END OF INPUT****

CARTESIAN COORDINATES (ANGSTROEM)
---------------------------------
  C      2.573490   -0.000000    0.441590
  P      1.032440   -0.000010   -0.610410
  C      0.069290    1.398100    0.185260
  C     -1.430010    1.289880   -0.151030
  C     -2.076810    0.000010    0.384630
  C     -1.430030   -1.289870   -0.151020
  C      0.069280   -1.398100    0.185260
  H      0.472920   -2.350540   -0.177910
  H      0.209350   -1.378960    1.276060
  H     -1.957680   -2.158700    0.263520
  H     -1.564550   -1.338500   -1.240640
  H     -2.016810    0.000010    1.483060
  H     -3.144990    0.000000    0.133640
  H     -1.957650    2.158710    0.263500
  H     -1.564540    1.338530   -1.240650
  H      0.209340    1.378940    1.276070
  H      0.472980    2.350530   -0.177890
  H      2.350730    0.000040    1.515460
  H      3.176460   -0.883310    0.206920
  H      3.176500    0.883260    0.206870

 Total Charge           Charge          ....    0
 Multiplicity           Mult            ....    1
 Number of Electrons    NEL             ....   64
 Basis Dimension        Dim             ....  396

ORBITAL ENERGIES
----------------

  NO   OCC          E(Eh)            E(eV)
   0   2.0000     -79.924233     -2174.8490
   1   2.0000     -11.223697      -305.4123
   2   2.0000     -11.223658      -305.4113
   3   2.0000     -11.221335      -305.3480
   4   2.0000     -11.221331      -305.3479
   5   2.0000     -11.220281      -305.3194
   6   2.0000     -11.219229      -305.2908
   7   2.0000      -7.464576      -203.1215
   8   2.0000      -5.358329      -145.8075
   9   2.0000      -5.358242      -145.8052
  10   2.0000      -5.357208      -145.7770
  11   2.0000      -1.092039       -29.7159
  12   2.0000      -1.002640       -27.2832
  13   2.0000      -0.984895       -26.8004
  14   2.0000      -0.919882       -25.0313
  15   2.0000      -0.827126       -22.5073
  16   2.0000      -0.781739       -21.2722
  17   2.0000      -0.710767       -19.3410
  18   2.0000      -0.629957       -17.1420
  19   2.0000      -0.597864       -16.2687
  20   2.0000      -0.596522       -16.2322
  21   2.0000      -0.578434       -15.7400
  22   2.0000      -0.563384       -15.3305
  23   2.0000      -0.541572       -14.7369
  24   2.0000      -0.535014       -14.5585
  25   2.0000      -0.496257       -13.5038
  26   2.0000      -0.487476       -13.2649
  27   2.0000      -0.481569       -13.1042
  28   2.0000      -0.462867       -12.5952
  29   2.0000      -0.424051       -11.5390
  30   2.0000      -0.405976       -11.0472
  31   2.0000      -0.325029        -8.8445
  32   0.0000       0.139094         3.7849
  33   0.0000       0.144165         3.9229
  34   0.0000       0.155134         4.2214
  35   0.0000       0.163203         4.4410
  36   0.0000       0.183246         4.9864

MULLIKEN ATOMIC CHARGES
-----------------------
   0 C :   -0.371439
   1 P :    0.141956
   2 C :   -0.259206
   3 C :   -0.194062
   4 C :   -0.193621
   5 C :   -0.194060
   6 C :   -0.259206
   7 H :    0.111883
   8 H :    0.093288
   9 H :    0.107744
  10 H :    0.098674
  11 H :    0.087619
  12 H :    0.110022
  13 H :    0.107747
  14 H :    0.098674
  15 H :    0.093284
  16 H :    0.111884
  17 H :    0.096406
  18 H :    0.106202
  19 H :    0.106208
Sum of atomic charges:   -0.0000000

LOEWDIN ATOMIC CHARGES
----------------------
   0 C :   -0.025704
   1 P :    0.490845
   2 C :   -0.061830
   3 C :    0.037207
   4 C :    0.052749
   5 C :    0.037209
   6 C :   -0.061830
   7 H :   -0.041812
   8 H :   -0.046576
   9 H :   -0.026648
  10 H :   -0.026531
  11 H :   -0.027867
  12 H :   -0.025160
  13 H :   -0.026652
  14 H :   -0.026530
  15 H :   -0.046572
  16 H :   -0.041811
  17 H :   -0.050046
  18 H :   -0.041218
  19 H :   -0.041222

  Mayer bond orders larger than 0.1
B(  0-C ,  1-P ) :   0.9916 B(  0-C , 17-H ) :   0.9672 B(  0-C , 18-H ) :   0.9735
B(  0-C , 19-H ) :   0.9735 B(  1-P ,  2-C ) :   0.9837 B(  1-P ,  6-C ) :   0.9837
B(  2-C ,  3-C ) :   0.9480 B(  2-C , 15-H ) :   0.9760 B(  2-C , 16-H ) :   0.9814
B(  3-C ,  4-C ) :   0.9480 B(  3-C , 13-H ) :   0.9880 B(  3-C , 14-H ) :   0.9809
B(  4-C ,  5-C ) :   0.9480 B(  4-C , 11-H ) :   0.9836 B(  4-C , 12-H ) :   0.9939
B(  5-C ,  6-C ) :   0.9480 B(  5-C ,  9-H ) :   0.9880 B(  5-C , 10-H ) :   0.9809
B(  6-C ,  7-H ) :   0.9814 B(  6-C ,  8-H ) :   0.9760

E(0)                                       ...   -575.618556720
E(0)                                       ...   -575.618556720
E(CORR)(strong-pairs)                      ...     -1.271423282
E(CORR)(weak-pairs)                        ...     -0.001204876
E(CORR)(corrected)                         ...     -1.272628158
E(TOT)                                     ...   -576.891184878
E(CCSD(T))                                 ...   -576.944204577
FINAL SINGLE POINT ENERGY      -576.944204577316

DIPOLE MOMENT
-------------
                                X             Y             Z
Electronic contribution:      3.09582      -0.00003      -4.01001
Nuclear contribution   :     -3.23010       0.00002       4.52181
                        -----------------------------------------
Total Dipole Moment    :     -0.13428      -0.00000       0.51180
                        -----------------------------------------
Magnitude (a.u.)       :      0.52912
Magnitude (Debye)      :      1.34492

Rotational constants in cm-1:     0.116695     0.057183     0.043981
Rotational constants in MHz :  3498.418166  1714.296728  1318.526348

                             ****ORCA TERMINATED NORMALLY****
TOTAL RUN TIME: 0 days 0 hours 9 minutes 57 seconds 663 msec
