                         Program Version 4.1.x  -  STABLE  -
|  1> ! RHF DLPNO-CCSD(T) cc-pVTZ RIJK cc-pVTZ/JK cc-pVTZ/C
|  2> ! KDIIS SOSCF TightSCF TightPNO
|  3>
|  4> %pal nprocs 16 end
|  5>
|  6> %maxcore 7000
|  7>
|  8> %scf maxiter 300
|  9>      shift shift 0.2 erroff 0.1 end
| 10> end
| 11>
| 12> * xyzfile 0 1 Ph3SiO_cycl_ax.xyz
| 13>
| 14>
| 15>                          ****END OF INPUT****

CARTESIAN COORDINATES (ANGSTROEM)
---------------------------------
  C      3.186040    3.738180   -0.486770
  C      1.964310    3.858490    0.180980
  C      1.129030    2.746440    0.315910
  C      1.485230    1.492240   -0.215400
  C      2.721040    1.395680   -0.883910
  C      3.564500    2.502130   -1.017460
  Si     0.375150   -0.012790    0.063120
  C      0.502250   -1.171720   -1.427880
  C      0.655640   -0.678800   -2.738820
  C      0.671760   -1.536280   -3.842430
  C      0.538890   -2.915090   -3.657780
  C      0.388870   -3.428720   -2.366610
  C      0.369780   -2.565140   -1.268180
  O     -1.199030    0.485360    0.330670
  C     -2.104270    1.042430   -0.643590
  C     -3.058590   -0.048640   -1.155600
  C     -4.008440   -0.553240   -0.057630
  C     -4.785990    0.604660    0.589200
  C     -3.833770    1.690070    1.117290
  C     -2.885410    2.188460    0.014930
  C      0.835210   -0.920230    1.647830
  C      2.100870   -1.517000    1.802150
  C      2.451490   -2.180280    2.980370
  C      1.538090   -2.257710    4.036230
  C      0.277520   -1.669850    3.905140
  C     -0.068360   -1.008920    2.722530
  H     -4.702180   -1.290930   -0.479360
  H     -3.423330   -1.073750    0.711000
  H     -5.420960    0.229280    1.401470
  H     -5.462480    1.048600   -0.156850
  H     -3.238720    1.283120    1.944520
  H     -4.404400    2.534180    1.523930
  H     -3.645320    0.378460   -1.981890
  H     -2.475180   -0.875290   -1.574580
  H     -2.182060    2.928550    0.412980
  H     -3.467730    2.693040   -0.769310
  H     -1.527310    1.443450   -1.489400
  H      2.828260   -1.467690    0.994500
  H      3.434340   -2.634060    3.075150
  H      1.808280   -2.772110    4.954470
  H     -0.436750   -1.725820    4.722410
  H     -1.050450   -0.555760    2.626750
  H      0.768840    0.389570   -2.905790
  H      0.253900   -2.983280   -0.271560
  H      0.288450   -4.500110   -2.214920
  H      0.791220   -1.129170   -4.842940
  H      0.554730   -3.584610   -4.513480
  H      3.032750    0.446650   -1.313360
  H      0.186770    2.854300    0.846280
  H      1.663540    4.815860    0.598180
  H      4.513070    2.399970   -1.537870
  H      3.838470    4.600630   -0.592300

 Total Charge           Charge          ....    0
 Multiplicity           Mult            ....    1
 Number of Electrons    NEL             ....  192
 Basis Dimension        Dim             .... 1148

ORBITAL ENERGIES
----------------

  NO   OCC          E(Eh)            E(eV)
   0   2.0000     -68.787715     -1871.8089
   1   2.0000     -20.534120      -558.7618
   2   2.0000     -11.279970      -306.9436
   3   2.0000     -11.240526      -305.8703
   4   2.0000     -11.239130      -305.8323
   5   2.0000     -11.237900      -305.7988
   6   2.0000     -11.237706      -305.7935
   7   2.0000     -11.236953      -305.7730
   8   2.0000     -11.235873      -305.7437
   9   2.0000     -11.235236      -305.7263
  10   2.0000     -11.234485      -305.7059
  11   2.0000     -11.234377      -305.7029
  12   2.0000     -11.234043      -305.6938
  13   2.0000     -11.233416      -305.6768
  14   2.0000     -11.232942      -305.6639
  15   2.0000     -11.230801      -305.6056
  16   2.0000     -11.229929      -305.5819
  17   2.0000     -11.228764      -305.5502
  18   2.0000     -11.220620      -305.3286
  19   2.0000     -11.219174      -305.2892
  20   2.0000     -11.215784      -305.1970
  21   2.0000     -11.215328      -305.1846
  22   2.0000     -11.213235      -305.1276
  23   2.0000     -11.212563      -305.1094
  24   2.0000     -11.212255      -305.1010
  25   2.0000     -11.210969      -305.0660
  26   2.0000      -6.130191      -166.8110
  27   2.0000      -4.237326      -115.3035
  28   2.0000      -4.236820      -115.2897
  29   2.0000      -4.236663      -115.2855
  30   2.0000      -1.332108       -36.2485
  31   2.0000      -1.145572       -31.1726
  32   2.0000      -1.142122       -31.0787
  33   2.0000      -1.138701       -30.9856
  34   2.0000      -1.098627       -29.8952
  35   2.0000      -1.017074       -27.6760
  36   2.0000      -1.011983       -27.5375
  37   2.0000      -1.009344       -27.4656
  38   2.0000      -1.005649       -27.3651
  39   2.0000      -1.003484       -27.3062
  40   2.0000      -1.001146       -27.2426
  41   2.0000      -0.998077       -27.1591
  42   2.0000      -0.987305       -26.8659
  43   2.0000      -0.836200       -22.7542
  44   2.0000      -0.829882       -22.5822
  45   2.0000      -0.824705       -22.4414
  46   2.0000      -0.821867       -22.3641
  47   2.0000      -0.818445       -22.2710
  48   2.0000      -0.813240       -22.1294
  49   2.0000      -0.810601       -22.0576
  50   2.0000      -0.806756       -21.9529
  51   2.0000      -0.750675       -20.4269
  52   2.0000      -0.717027       -19.5113
  53   2.0000      -0.695705       -18.9311
  54   2.0000      -0.693584       -18.8734
  55   2.0000      -0.677385       -18.4326
  56   2.0000      -0.652158       -17.7461
  57   2.0000      -0.632107       -17.2005
  58   2.0000      -0.627619       -17.0784
  59   2.0000      -0.625128       -17.0106
  60   2.0000      -0.618519       -16.8308
  61   2.0000      -0.617042       -16.7906
  62   2.0000      -0.612731       -16.6733
  63   2.0000      -0.610772       -16.6199
  64   2.0000      -0.606886       -16.5142
  65   2.0000      -0.589346       -16.0369
  66   2.0000      -0.583909       -15.8890
  67   2.0000      -0.581581       -15.8256
  68   2.0000      -0.577348       -15.7104
  69   2.0000      -0.562540       -15.3075
  70   2.0000      -0.559152       -15.2153
  71   2.0000      -0.545844       -14.8532
  72   2.0000      -0.539975       -14.6935
  73   2.0000      -0.522092       -14.2068
  74   2.0000      -0.518750       -14.1159
  75   2.0000      -0.506934       -13.7944
  76   2.0000      -0.500436       -13.6175
  77   2.0000      -0.498367       -13.5612
  78   2.0000      -0.494562       -13.4577
  79   2.0000      -0.490239       -13.3401
  80   2.0000      -0.489179       -13.3113
  81   2.0000      -0.487308       -13.2603
  82   2.0000      -0.485107       -13.2004
  83   2.0000      -0.473572       -12.8866
  84   2.0000      -0.464233       -12.6324
  85   2.0000      -0.452036       -12.3005
  86   2.0000      -0.432372       -11.7654
  87   2.0000      -0.428206       -11.6521
  88   2.0000      -0.419372       -11.4117
  89   2.0000      -0.405782       -11.0419
  90   2.0000      -0.341927        -9.3043
  91   2.0000      -0.336875        -9.1668
  92   2.0000      -0.336129        -9.1465
  93   2.0000      -0.332477        -9.0472
  94   2.0000      -0.328495        -8.9388
  95   2.0000      -0.322713        -8.7815
  96   0.0000       0.101473         2.7612
  97   0.0000       0.105466         2.8699
  98   0.0000       0.115355         3.1390
  99   0.0000       0.121484         3.3057
 100   0.0000       0.129732         3.5302

MULLIKEN ATOMIC CHARGES
-----------------------
   0 C :   -0.151052
   1 C :   -0.146241
   2 C :   -0.171802
   3 C :   -0.051946
   4 C :   -0.169625
   5 C :   -0.143372
   6 Si:    0.345382
   7 C :   -0.107117
   8 C :   -0.139973
   9 C :   -0.141968
  10 C :   -0.149027
  11 C :   -0.146616
  12 C :   -0.153388
  13 O :   -0.490021
  14 C :    0.091762
  15 C :   -0.207633
  16 C :   -0.189853
  17 C :   -0.198047
  18 C :   -0.196315
  19 C :   -0.190717
  20 C :   -0.105545
  21 C :   -0.117187
  22 C :   -0.140905
  23 C :   -0.149499
  24 C :   -0.146546
  25 C :   -0.169518
  26 H :    0.109410
  27 H :    0.094356
  28 H :    0.107241
  29 H :    0.082377
  30 H :    0.095222
  31 H :    0.109918
  32 H :    0.100100
  33 H :    0.133604
  34 H :    0.110280
  35 H :    0.094641
  36 H :    0.117134
  37 H :    0.145477
  38 H :    0.150588
  39 H :    0.151074
  40 H :    0.150696
  41 H :    0.187345
  42 H :    0.174060
  43 H :    0.171509
  44 H :    0.154091
  45 H :    0.152919
  46 H :    0.153888
  47 H :    0.167765
  48 H :    0.167422
  49 H :    0.151727
  50 H :    0.151949
  51 H :    0.151977
Sum of atomic charges:   -0.0000000

LOEWDIN ATOMIC CHARGES
----------------------
   0 C :    0.033661
   1 C :    0.024203
   2 C :    0.027350
   3 C :   -0.103627
   4 C :    0.022133
   5 C :    0.022514
   6 Si:    0.214400
   7 C :   -0.107575
   8 C :    0.022806
   9 C :    0.021602
  10 C :    0.035273
  11 C :    0.023627
  12 C :    0.028536
  13 O :    0.183939
  14 C :   -0.112800
  15 C :    0.060887
  16 C :    0.060564
  17 C :    0.056775
  18 C :    0.060162
  19 C :    0.059432
  20 C :   -0.101048
  21 C :    0.025303
  22 C :    0.021827
  23 C :    0.032139
  24 C :    0.022218
  25 C :    0.028524
  26 H :   -0.027734
  27 H :   -0.026070
  28 H :   -0.027849
  29 H :   -0.028646
  30 H :   -0.026371
  31 H :   -0.028219
  32 H :   -0.022668
  33 H :   -0.022727
  34 H :   -0.027923
  35 H :   -0.022424
  36 H :   -0.029617
  37 H :   -0.024430
  38 H :   -0.026509
  39 H :   -0.025264
  40 H :   -0.026688
  41 H :   -0.024189
  42 H :   -0.024406
  43 H :   -0.020955
  44 H :   -0.025272
  45 H :   -0.025752
  46 H :   -0.024050
  47 H :   -0.025262
  48 H :   -0.023383
  49 H :   -0.025848
  50 H :   -0.025935
  51 H :   -0.024634

  Mayer bond orders larger than 0.1
B(  0-C ,  1-C ) :   1.3713 B(  0-C ,  5-C ) :   1.3724 B(  0-C , 51-H ) :   0.9782
B(  1-C ,  2-C ) :   1.3724 B(  1-C , 49-H ) :   0.9754 B(  2-C ,  3-C ) :   1.3633
B(  2-C , 48-H ) :   0.9646 B(  3-C ,  4-C ) :   1.3518 B(  3-C ,  6-Si) :   1.0674
B(  4-C ,  5-C ) :   1.3748 B(  4-C , 47-H ) :   0.9626 B(  5-C , 50-H ) :   0.9749
B(  6-Si,  7-C ) :   1.0612 B(  6-Si, 13-O ) :   1.1228 B(  6-Si, 20-C ) :   1.0813
B(  7-C ,  8-C ) :   1.3420 B(  7-C , 12-C ) :   1.3631 B(  8-C ,  9-C ) :   1.3761
B(  8-C , 42-H ) :   0.9590 B(  9-C , 10-C ) :   1.3713 B(  9-C , 45-H ) :   0.9749
B( 10-C , 11-C ) :   1.3712 B( 10-C , 46-H ) :   0.9773 B( 11-C , 12-C ) :   1.3746
B( 11-C , 44-H ) :   0.9752 B( 12-C , 43-H ) :   0.9646 B( 13-O , 14-C ) :   0.8570
B( 14-C , 15-C ) :   0.9654 B( 14-C , 19-C ) :   0.9644 B( 14-C , 36-H ) :   0.9895
B( 15-C , 16-C ) :   0.9474 B( 15-C , 32-H ) :   0.9867 B( 15-C , 33-H ) :   0.9840
B( 16-C , 17-C ) :   0.9506 B( 16-C , 26-H ) :   0.9948 B( 16-C , 27-H ) :   0.9796
B( 17-C , 18-C ) :   0.9511 B( 17-C , 28-H ) :   0.9948 B( 17-C , 29-H ) :   0.9862
B( 18-C , 19-C ) :   0.9493 B( 18-C , 30-H ) :   0.9801 B( 18-C , 31-H ) :   0.9944
B( 19-C , 34-H ) :   0.9910 B( 19-C , 35-H ) :   0.9868 B( 20-C , 21-C ) :   1.3470
B( 20-C , 25-C ) :   1.3845 B( 21-C , 22-C ) :   1.3764 B( 21-C , 37-H ) :   0.9706
B( 22-C , 23-C ) :   1.3637 B( 22-C , 38-H ) :   0.9753 B( 23-C , 24-C ) :   1.3745
B( 23-C , 39-H ) :   0.9784 B( 24-C , 25-C ) :   1.3644 B( 24-C , 40-H ) :   0.9765
B( 25-C , 41-H ) :   0.9546

E(0)                                       ...  -1288.197038899
E(0)                                       ...  -1288.197038899
E(CORR)(strong-pairs)                      ...     -4.310942026
E(CORR)(weak-pairs)                        ...     -0.009469445
E(CORR)(corrected)                         ...     -4.320411471
E(TOT)                                     ...  -1292.517450370
E(CCSD(T))                                 ...  -1292.730877578
FINAL SINGLE POINT ENERGY     -1292.730877577635

DIPOLE MOMENT
-------------
                                X             Y             Z
Electronic contribution:     17.66751      -3.46086       0.39044
Nuclear contribution   :    -17.61521       3.48115      -0.83531
                        -----------------------------------------
Total Dipole Moment    :      0.05230       0.02029      -0.44487
                        -----------------------------------------
Magnitude (a.u.)       :      0.44839
Magnitude (Debye)      :      1.13971

Rotational constants in cm-1:     0.006004     0.005254     0.005242
Rotational constants in MHz :   179.984549   157.496297   157.140364

                             ****ORCA TERMINATED NORMALLY****
TOTAL RUN TIME: 0 days 6 hours 50 minutes 5 seconds 472 msec
