                         Program Version 4.1.x  -  STABLE  -
|  1> ! RHF DLPNO-CCSD(T) cc-pVTZ RIJK cc-pVTZ/JK cc-pVTZ/C
|  2> ! KDIIS SOSCF TightSCF TightPNO
|  3>
|  4> %pal nprocs 16 end
|  5>
|  6> %maxcore 7000
|  7>
|  8> %scf maxiter 300
|  9>      shift shift 0.2 erroff 0.1 end
| 10> end
| 11>
| 12> * xyzfile 0 1 Ph3SiO_cycl_eq.xyz
| 13>
| 14>
| 15>                          ****END OF INPUT****

CARTESIAN COORDINATES (ANGSTROEM)
---------------------------------
  C     -1.621380    4.415070    1.214930
  C     -0.936170    4.173540    0.020710
  C     -0.594260    2.867040   -0.337110
  C     -0.920920    1.771870    0.486510
  C     -1.610490    2.039940    1.684580
  C     -1.960160    3.344460    2.046350
  Si    -0.514750    0.014990   -0.078700
  C     -0.229970   -1.085750    1.434770
  C      0.465930   -0.620050    2.568400
  C      0.728170   -1.456570    3.656730
  C      0.292520   -2.784560    3.637950
  C     -0.404200   -3.268270    2.527410
  C     -0.660080   -2.427060    1.440900
  O      0.819480    0.035930   -1.085070
  C      2.198420    0.173270   -0.708550
  C      2.873020    1.170640   -1.655500
  C      4.378890    1.295260   -1.367520
  C      5.078360   -0.072370   -1.409570
  C      4.397060   -1.074440   -0.464380
  C      2.891630   -1.193030   -0.757340
  C     -1.886940   -0.684310   -1.161750
  C     -3.239840   -0.557160   -0.794080
  C     -4.259220   -1.094440   -1.583780
  C     -3.943880   -1.769500   -2.766930
  C     -2.607690   -1.901950   -3.153390
  C     -1.591420   -1.364300   -2.357720
  H      4.838200    1.983190   -2.087570
  H      4.524030    1.744950   -0.374250
  H      6.138730    0.035350   -1.149880
  H      5.044430   -0.463980   -2.436620
  H      4.541790   -0.747630    0.575800
  H      4.869690   -2.060660   -0.545960
  H      2.714170    0.821670   -2.685100
  H      2.381580    2.146360   -1.569370
  H      2.410450   -1.873540   -0.046360
  H      2.738170   -1.613880   -1.760670
  H      2.266530    0.566220    0.318540
  H     -3.507820   -0.026200    0.116740
  H     -5.296510   -0.982470   -1.280030
  H     -4.735060   -2.185720   -3.384610
  H     -2.356180   -2.420950   -4.074510
  H     -0.555790   -1.462770   -2.669620
  H      0.804350    0.412610    2.609680
  H     -1.206440   -2.820040    0.587380
  H     -0.750010   -4.298240    2.507580
  H      1.267040   -1.071740    4.518380
  H      0.491700   -3.436280    4.484220
  H     -1.875990    1.222910    2.350970
  H     -0.068030    2.694400   -1.272300
  H     -0.670660    5.001180   -0.631590
  H     -2.492450    3.523940    2.976610
  H     -1.889480    5.430030    1.495210

 Total Charge           Charge          ....    0
 Multiplicity           Mult            ....    1
 Number of Electrons    NEL             ....  192
 Basis Dimension        Dim             .... 1148

ORBITAL ENERGIES
----------------

  NO   OCC          E(Eh)            E(eV)
   0   2.0000     -68.786899     -1871.7867
   1   2.0000     -20.533790      -558.7528
   2   2.0000     -11.278689      -306.9087
   3   2.0000     -11.239887      -305.8529
   4   2.0000     -11.238920      -305.8266
   5   2.0000     -11.238032      -305.8024
   6   2.0000     -11.236954      -305.7731
   7   2.0000     -11.236892      -305.7714
   8   2.0000     -11.235653      -305.7377
   9   2.0000     -11.234939      -305.7182
  10   2.0000     -11.233918      -305.6905
  11   2.0000     -11.233837      -305.6882
  12   2.0000     -11.233363      -305.6753
  13   2.0000     -11.233015      -305.6659
  14   2.0000     -11.232766      -305.6591
  15   2.0000     -11.230335      -305.5929
  16   2.0000     -11.229066      -305.5584
  17   2.0000     -11.228272      -305.5368
  18   2.0000     -11.220120      -305.3150
  19   2.0000     -11.218742      -305.2775
  20   2.0000     -11.218722      -305.2769
  21   2.0000     -11.217741      -305.2503
  22   2.0000     -11.216758      -305.2235
  23   2.0000     -11.214393      -305.1592
  24   2.0000     -11.214131      -305.1520
  25   2.0000     -11.212046      -305.0953
  26   2.0000      -6.129398      -166.7894
  27   2.0000      -4.236525      -115.2817
  28   2.0000      -4.235995      -115.2673
  29   2.0000      -4.235913      -115.2651
  30   2.0000      -1.332152       -36.2497
  31   2.0000      -1.145020       -31.1576
  32   2.0000      -1.141863       -31.0717
  33   2.0000      -1.138001       -30.9666
  34   2.0000      -1.104650       -30.0591
  35   2.0000      -1.016733       -27.6667
  36   2.0000      -1.011423       -27.5222
  37   2.0000      -1.009167       -27.4608
  38   2.0000      -1.005055       -27.3489
  39   2.0000      -1.003153       -27.2972
  40   2.0000      -1.000559       -27.2266
  41   2.0000      -1.000221       -27.2174
  42   2.0000      -0.986211       -26.8362
  43   2.0000      -0.836932       -22.7741
  44   2.0000      -0.833065       -22.6689
  45   2.0000      -0.824215       -22.4280
  46   2.0000      -0.819841       -22.3090
  47   2.0000      -0.817652       -22.2495
  48   2.0000      -0.812436       -22.1075
  49   2.0000      -0.809641       -22.0315
  50   2.0000      -0.805933       -21.9305
  51   2.0000      -0.755438       -20.5565
  52   2.0000      -0.725536       -19.7428
  53   2.0000      -0.695404       -18.9229
  54   2.0000      -0.693770       -18.8785
  55   2.0000      -0.678350       -18.4588
  56   2.0000      -0.646375       -17.5888
  57   2.0000      -0.637158       -17.3379
  58   2.0000      -0.628071       -17.0907
  59   2.0000      -0.625065       -17.0089
  60   2.0000      -0.617555       -16.8045
  61   2.0000      -0.615036       -16.7360
  62   2.0000      -0.611902       -16.6507
  63   2.0000      -0.607011       -16.5176
  64   2.0000      -0.601677       -16.3725
  65   2.0000      -0.590884       -16.0788
  66   2.0000      -0.583445       -15.8763
  67   2.0000      -0.581174       -15.8146
  68   2.0000      -0.577760       -15.7217
  69   2.0000      -0.569874       -15.5071
  70   2.0000      -0.561010       -15.2658
  71   2.0000      -0.547346       -14.8940
  72   2.0000      -0.542594       -14.7647
  73   2.0000      -0.529503       -14.4085
  74   2.0000      -0.524434       -14.2706
  75   2.0000      -0.500639       -13.6231
  76   2.0000      -0.498511       -13.5652
  77   2.0000      -0.495739       -13.4897
  78   2.0000      -0.493432       -13.4270
  79   2.0000      -0.488284       -13.2869
  80   2.0000      -0.487102       -13.2547
  81   2.0000      -0.483595       -13.1593
  82   2.0000      -0.481927       -13.1139
  83   2.0000      -0.471692       -12.8354
  84   2.0000      -0.462729       -12.5915
  85   2.0000      -0.457236       -12.4420
  86   2.0000      -0.434958       -11.8358
  87   2.0000      -0.433146       -11.7865
  88   2.0000      -0.425666       -11.5830
  89   2.0000      -0.404556       -11.0085
  90   2.0000      -0.341055        -9.2806
  91   2.0000      -0.336629        -9.1601
  92   2.0000      -0.335011        -9.1161
  93   2.0000      -0.331876        -9.0308
  94   2.0000      -0.328348        -8.9348
  95   2.0000      -0.323417        -8.8006
  96   0.0000       0.103575         2.8184
  97   0.0000       0.104956         2.8560
  98   0.0000       0.117249         3.1905
  99   0.0000       0.121355         3.3022
 100   0.0000       0.130900         3.5620

MULLIKEN ATOMIC CHARGES
-----------------------
   0 C :   -0.151614
   1 C :   -0.143589
   2 C :   -0.167059
   3 C :   -0.059534
   4 C :   -0.165399
   5 C :   -0.143411
   6 Si:    0.342931
   7 C :   -0.101132
   8 C :   -0.146910
   9 C :   -0.144988
  10 C :   -0.148190
  11 C :   -0.149780
  12 C :   -0.161382
  13 O :   -0.477816
  14 C :    0.155414
  15 C :   -0.194634
  16 C :   -0.207069
  17 C :   -0.188229
  18 C :   -0.207611
  19 C :   -0.195439
  20 C :   -0.104777
  21 C :   -0.116337
  22 C :   -0.142775
  23 C :   -0.148274
  24 C :   -0.143956
  25 C :   -0.157480
  26 H :    0.109858
  27 H :    0.090303
  28 H :    0.108736
  29 H :    0.086500
  30 H :    0.091261
  31 H :    0.109968
  32 H :    0.093050
  33 H :    0.108489
  34 H :    0.125987
  35 H :    0.091308
  36 H :    0.081128
  37 H :    0.145056
  38 H :    0.151046
  39 H :    0.151216
  40 H :    0.151094
  41 H :    0.171704
  42 H :    0.172389
  43 H :    0.169376
  44 H :    0.154086
  45 H :    0.152639
  46 H :    0.153596
  47 H :    0.174842
  48 H :    0.168299
  49 H :    0.152266
  50 H :    0.152687
  51 H :    0.152154
Sum of atomic charges:    0.0000000

LOEWDIN ATOMIC CHARGES
----------------------
   0 C :    0.033764
   1 C :    0.023925
   2 C :    0.029063
   3 C :   -0.104088
   4 C :    0.021263
   5 C :    0.021689
   6 Si:    0.213832
   7 C :   -0.106627
   8 C :    0.021366
   9 C :    0.021090
  10 C :    0.034709
  11 C :    0.023857
  12 C :    0.028447
  13 O :    0.191676
  14 C :   -0.120465
  15 C :    0.059518
  16 C :    0.059793
  17 C :    0.056426
  18 C :    0.060555
  19 C :    0.060566
  20 C :   -0.100977
  21 C :    0.025786
  22 C :    0.021928
  23 C :    0.032064
  24 C :    0.021277
  25 C :    0.028709
  26 H :   -0.026067
  27 H :   -0.027015
  28 H :   -0.027370
  29 H :   -0.026674
  30 H :   -0.026798
  31 H :   -0.025750
  32 H :   -0.023002
  33 H :   -0.027071
  34 H :   -0.023076
  35 H :   -0.024089
  36 H :   -0.031119
  37 H :   -0.024073
  38 H :   -0.026604
  39 H :   -0.025358
  40 H :   -0.026866
  41 H :   -0.023220
  42 H :   -0.024989
  43 H :   -0.020934
  44 H :   -0.025380
  45 H :   -0.025976
  46 H :   -0.024259
  47 H :   -0.024684
  48 H :   -0.022199
  49 H :   -0.025853
  50 H :   -0.026079
  51 H :   -0.024642

  Mayer bond orders larger than 0.1
B(  0-C ,  1-C ) :   1.3688 B(  0-C ,  5-C ) :   1.3752 B(  0-C , 51-H ) :   0.9781
B(  1-C ,  2-C ) :   1.3729 B(  1-C , 49-H ) :   0.9752 B(  2-C ,  3-C ) :   1.3597
B(  2-C , 48-H ) :   0.9660 B(  3-C ,  4-C ) :   1.3501 B(  3-C ,  6-Si) :   1.0776
B(  4-C ,  5-C ) :   1.3689 B(  4-C , 47-H ) :   0.9590 B(  5-C , 50-H ) :   0.9748
B(  6-Si,  7-C ) :   1.0411 B(  6-Si, 13-O ) :   1.1323 B(  6-Si, 20-C ) :   1.0927
B(  7-C ,  8-C ) :   1.3449 B(  7-C , 12-C ) :   1.3693 B(  8-C ,  9-C ) :   1.3800
B(  8-C , 42-H ) :   0.9602 B(  9-C , 10-C ) :   1.3693 B(  9-C , 45-H ) :   0.9748
B( 10-C , 11-C ) :   1.3742 B( 10-C , 46-H ) :   0.9774 B( 11-C , 12-C ) :   1.3745
B( 11-C , 44-H ) :   0.9755 B( 12-C , 43-H ) :   0.9671 B( 13-O , 14-C ) :   0.8650
B( 14-C , 15-C ) :   0.9664 B( 14-C , 19-C ) :   0.9678 B( 14-C , 36-H ) :   0.9702
B( 15-C , 16-C ) :   0.9477 B( 15-C , 32-H ) :   0.9830 B( 15-C , 33-H ) :   0.9929
B( 16-C , 17-C ) :   0.9475 B( 16-C , 26-H ) :   0.9926 B( 16-C , 27-H ) :   0.9841
B( 17-C , 18-C ) :   0.9468 B( 17-C , 28-H ) :   0.9949 B( 17-C , 29-H ) :   0.9842
B( 18-C , 19-C ) :   0.9495 B( 18-C , 30-H ) :   0.9850 B( 18-C , 31-H ) :   0.9926
B( 19-C , 34-H ) :   0.9857 B( 19-C , 35-H ) :   0.9835 B( 20-C , 21-C ) :   1.3391
B( 20-C , 25-C ) :   1.3694 B( 21-C , 22-C ) :   1.3772 B( 21-C , 37-H ) :   0.9733
B( 22-C , 23-C ) :   1.3674 B( 22-C , 38-H ) :   0.9754 B( 23-C , 24-C ) :   1.3769
B( 23-C , 39-H ) :   0.9782 B( 24-C , 25-C ) :   1.3643 B( 24-C , 40-H ) :   0.9762
B( 25-C , 41-H ) :   0.9595

E(0)                                       ...  -1288.199017508
E(0)                                       ...  -1288.199017508
E(CORR)(strong-pairs)                      ...     -4.309441495
E(CORR)(weak-pairs)                        ...     -0.009288112
E(CORR)(corrected)                         ...     -4.318729607
E(TOT)                                     ...  -1292.517747115
E(CCSD(T))                                 ...  -1292.730944261
FINAL SINGLE POINT ENERGY     -1292.730944261433

DIPOLE MOMENT
-------------
                                X             Y             Z
Electronic contribution:    -19.53356      -0.11009       3.86342
Nuclear contribution   :     19.78213       0.11904      -3.45916
                        -----------------------------------------
Total Dipole Moment    :      0.24857       0.00895       0.40425
                        -----------------------------------------
Magnitude (a.u.)       :      0.47464
Magnitude (Debye)      :      1.20645

Rotational constants in cm-1:     0.006332     0.005003     0.004675
Rotational constants in MHz :   189.827667   149.993097   140.138534

                             ****ORCA TERMINATED NORMALLY****
TOTAL RUN TIME: 0 days 6 hours 30 minutes 27 seconds 17 msec
