                         Program Version 4.1.x  -  STABLE  -
|  1> ! RHF DLPNO-CCSD(T) cc-pVTZ RIJK cc-pVTZ/JK cc-pVTZ/C
|  2> ! KDIIS SOSCF TightSCF TightPNO
|  3>
|  4> %pal nprocs 8 end
|  5>
|  6> %maxcore 8000
|  7>
|  8> %scf maxiter 300
|  9>      shift shift 0.2 erroff 0.1 end
| 10> end
| 11>
| 12> * xyzfile 0 1 phenylcyclohexane_eq.xyz
| 13>
| 14>
| 15>                          ****END OF INPUT****

CARTESIAN COORDINATES (ANGSTROEM)
---------------------------------
  C     -3.715070    0.238280   -0.000570
  C     -2.833240    1.323310   -0.002950
  C     -1.453310    1.108960   -0.002440
  C     -0.920530   -0.191030    0.000490
  C     -1.819270   -1.267990    0.002850
  C     -3.201880   -1.060380    0.002330
  C      0.579570   -0.436910    0.001050
  C      1.271910    0.111040   -1.268990
  C      2.781480   -0.179070   -1.268070
  C      3.462830    0.359960   -0.000870
  C      2.781520   -0.173190    1.268830
  C      1.271960    0.116960    1.268480
  H      0.800510   -0.320610   -2.160300
  H      1.112000    1.196870   -1.327600
  H      3.245150    0.253280   -2.163500
  H      3.413130    1.458870   -0.003410
  H      0.727070   -1.527310    0.003590
  H      3.245240    0.263260    2.162240
  H      1.112060    1.203060    1.322010
  H      0.800590   -0.310520    2.161810
  H      4.527770    0.096330   -0.000280
  H      2.940370   -1.265730   -1.329420
  H      2.940360   -1.259570    1.335180
  H     -1.430440   -2.283800    0.005110
  H     -0.785670    1.966490   -0.004360
  H     -3.220210    2.338730   -0.005220
  H     -3.875260   -1.913230    0.004190
  H     -4.788530    0.404250   -0.000970

 Total Charge           Charge          ....    0
 Multiplicity           Mult            ....    1
 Number of Electrons    NEL             ....   88
 Basis Dimension        Dim             ....  584

ORBITAL ENERGIES
----------------

  NO   OCC          E(Eh)            E(eV)
   0   2.0000     -11.236277      -305.7546
   1   2.0000     -11.231850      -305.6342
   2   2.0000     -11.231436      -305.6229
   3   2.0000     -11.230366      -305.5938
   4   2.0000     -11.228124      -305.5328
   5   2.0000     -11.227460      -305.5147
   6   2.0000     -11.227299      -305.5103
   7   2.0000     -11.218210      -305.2630
   8   2.0000     -11.218200      -305.2627
   9   2.0000     -11.217663      -305.2481
  10   2.0000     -11.217405      -305.2411
  11   2.0000     -11.216863      -305.2264
  12   2.0000      -1.150600       -31.3094
  13   2.0000      -1.110919       -30.2296
  14   2.0000      -1.037950       -28.2440
  15   2.0000      -1.006408       -27.3857
  16   2.0000      -1.000019       -27.2119
  17   2.0000      -0.970261       -26.4021
  18   2.0000      -0.848603       -23.0917
  19   2.0000      -0.829865       -22.5818
  20   2.0000      -0.820752       -22.3338
  21   2.0000      -0.786279       -21.3957
  22   2.0000      -0.748442       -20.3661
  23   2.0000      -0.691021       -18.8036
  24   2.0000      -0.645061       -17.5530
  25   2.0000      -0.632640       -17.2150
  26   2.0000      -0.616908       -16.7869
  27   2.0000      -0.599396       -16.3104
  28   2.0000      -0.596971       -16.2444
  29   2.0000      -0.583936       -15.8897
  30   2.0000      -0.573515       -15.6061
  31   2.0000      -0.541261       -14.7284
  32   2.0000      -0.532493       -14.4899
  33   2.0000      -0.523173       -14.2363
  34   2.0000      -0.494686       -13.4611
  35   2.0000      -0.492599       -13.4043
  36   2.0000      -0.484362       -13.1802
  37   2.0000      -0.482470       -13.1287
  38   2.0000      -0.471720       -12.8361
  39   2.0000      -0.450231       -12.2514
  40   2.0000      -0.429166       -11.6782
  41   2.0000      -0.427578       -11.6350
  42   2.0000      -0.330795        -9.0014
  43   2.0000      -0.320155        -8.7119
  44   0.0000       0.128247         3.4898
  45   0.0000       0.134330         3.6553
  46   0.0000       0.139419         3.7938
  47   0.0000       0.147336         4.0092
  48   0.0000       0.151362         4.1188

MULLIKEN ATOMIC CHARGES
-----------------------
   0 C :   -0.173770
   1 C :   -0.140247
   2 C :   -0.196660
   3 C :    0.044889
   4 C :   -0.167308
   5 C :   -0.134621
   6 C :   -0.098380
   7 C :   -0.188717
   8 C :   -0.203648
   9 C :   -0.188477
  10 C :   -0.203644
  11 C :   -0.188720
  12 H :    0.112001
  13 H :    0.093093
  14 H :    0.109611
  15 H :    0.085082
  16 H :    0.101687
  17 H :    0.109613
  18 H :    0.093089
  19 H :    0.112004
  20 H :    0.109938
  21 H :    0.088257
  22 H :    0.088250
  23 H :    0.143211
  24 H :    0.146244
  25 H :    0.148271
  26 H :    0.149523
  27 H :    0.149430
Sum of atomic charges:   -0.0000000

LOEWDIN ATOMIC CHARGES
----------------------
   0 C :    0.018538
   1 C :    0.026667
   2 C :    0.033260
   3 C :   -0.024619
   4 C :    0.029589
   5 C :    0.026539
   6 C :   -0.003796
   7 C :    0.068019
   8 C :    0.058231
   9 C :    0.056151
  10 C :    0.058228
  11 C :    0.068015
  12 H :   -0.023895
  13 H :   -0.027080
  14 H :   -0.026539
  15 H :   -0.027452
  16 H :   -0.016386
  17 H :   -0.026540
  18 H :   -0.027078
  19 H :   -0.023895
  20 H :   -0.027283
  21 H :   -0.026996
  22 H :   -0.026992
  23 H :   -0.027161
  24 H :   -0.028243
  25 H :   -0.025576
  26 H :   -0.025784
  27 H :   -0.027922

  Mayer bond orders larger than 0.1
B(  0-C ,  1-C ) :   1.3665 B(  0-C ,  5-C ) :   1.3846 B(  0-C , 27-H ) :   0.9787
B(  1-C ,  2-C ) :   1.4011 B(  1-C , 25-H ) :   0.9793 B(  2-C ,  3-C ) :   1.3583
B(  2-C , 24-H ) :   0.9742 B(  3-C ,  4-C ) :   1.3721 B(  3-C ,  6-C ) :   1.0091
B(  4-C ,  5-C ) :   1.3776 B(  4-C , 23-H ) :   0.9743 B(  5-C , 26-H ) :   0.9784
B(  6-C ,  7-C ) :   0.9474 B(  6-C , 11-C ) :   0.9474 B(  6-C , 16-H ) :   0.9855
B(  7-C ,  8-C ) :   0.9488 B(  7-C , 12-H ) :   0.9908 B(  7-C , 13-H ) :   0.9819
B(  8-C ,  9-C ) :   0.9468 B(  8-C , 14-H ) :   0.9940 B(  8-C , 21-H ) :   0.9852
B(  9-C , 10-C ) :   0.9468 B(  9-C , 15-H ) :   0.9842 B(  9-C , 20-H ) :   0.9952
B( 10-C , 11-C ) :   0.9488 B( 10-C , 17-H ) :   0.9940 B( 10-C , 22-H ) :   0.9852
B( 11-C , 18-H ) :   0.9819 B( 11-C , 19-H ) :   0.9908

E(0)                                       ...   -463.899249401
E(0)                                       ...   -463.899249401
E(CORR)(strong-pairs)                      ...     -2.049812050
E(CORR)(weak-pairs)                        ...     -0.003039423
E(CORR)(corrected)                         ...     -2.052851473
E(TOT)                                     ...   -465.952100874
E(CCSD(T))                                 ...   -466.047655444
FINAL SINGLE POINT ENERGY      -466.047655443819

DIPOLE MOMENT
-------------
                                X             Y             Z
Electronic contribution:    -10.91305      -0.32002       0.00094
Nuclear contribution   :     11.10068       0.30976      -0.00094
                        -----------------------------------------
Total Dipole Moment    :      0.18763      -0.01026      -0.00000
                        -----------------------------------------
Magnitude (a.u.)       :      0.18791
Magnitude (Debye)      :      0.47763

Rotational constants in cm-1:     0.081277     0.015862     0.015850
Rotational constants in MHz :  2436.616353   475.542304   475.163550

                             ****ORCA TERMINATED NORMALLY****
TOTAL RUN TIME: 0 days 1 hours 6 minutes 28 seconds 600 msec
