                         Program Version 4.1.x  -  STABLE  -
|  1> ! RHF DLPNO-CCSD(T) cc-pVTZ RIJK cc-pVTZ/JK cc-pVTZ/C
|  2> ! KDIIS SOSCF TightSCF TightPNO
|  3>
|  4> %pal nprocs 8 end
|  5>
|  6> %maxcore 8000
|  7>
|  8> %scf maxiter 300
|  9>      shift shift 0.2 erroff 0.1 end
| 10> end
| 11>
| 12> * xyzfile 0 1 phenylcyclohexane_ax.xyz
| 13>
| 14>
| 15>                          ****END OF INPUT****

CARTESIAN COORDINATES (ANGSTROEM)
---------------------------------
  C     -3.373250   -0.284350   -0.513770
  C     -2.490030   -1.357360   -0.396520
  C     -1.189400   -1.156470    0.079990
  C     -0.733710    0.118650    0.446060
  C     -1.645080    1.184920    0.333390
  C     -2.943250    0.992470   -0.139840
  C      0.662570    0.391680    1.019540
  C      1.429200    1.493550    0.238140
  C      2.001630    0.994800   -1.097020
  C      2.930430   -0.209940   -0.885020
  C      2.201690   -1.340740   -0.143380
  C      1.576450   -0.846580    1.175390
  H      0.784840    2.363220    0.072110
  H      2.258820    1.840840    0.870620
  H      2.542190    1.809890   -1.594080
  H      3.805400    0.107830   -0.298470
  H      0.489430    0.786680    2.031370
  H      2.893830   -2.165370    0.068830
  H      2.392340   -0.564340    1.855150
  H      1.037690   -1.659910    1.676030
  H      3.313650   -0.573720   -1.846400
  H      1.178800    0.709910   -1.767130
  H      1.425650   -1.748440   -0.802670
  H     -1.339400    2.184170    0.632420
  H     -0.534510   -2.015680    0.168330
  H     -2.808670   -2.358700   -0.673380
  H     -3.620870    1.839010   -0.211030
  H     -4.382780   -0.439030   -0.883460

 Total Charge           Charge          ....    0
 Multiplicity           Mult            ....    1
 Number of Electrons    NEL             ....   88
 Basis Dimension        Dim             ....  584

ORBITAL ENERGIES
----------------

  NO   OCC          E(Eh)            E(eV)
   0   2.0000     -11.238612      -305.8182
   1   2.0000     -11.233210      -305.6712
   2   2.0000     -11.231366      -305.6210
   3   2.0000     -11.230955      -305.6098
   4   2.0000     -11.227617      -305.5190
   5   2.0000     -11.226678      -305.4934
   6   2.0000     -11.226406      -305.4860
   7   2.0000     -11.219601      -305.3009
   8   2.0000     -11.218604      -305.2737
   9   2.0000     -11.216161      -305.2073
  10   2.0000     -11.215245      -305.1823
  11   2.0000     -11.213975      -305.1478
  12   2.0000      -1.150169       -31.2977
  13   2.0000      -1.109227       -30.1836
  14   2.0000      -1.034465       -28.1492
  15   2.0000      -1.009149       -27.4603
  16   2.0000      -0.996280       -27.1101
  17   2.0000      -0.973484       -26.4899
  18   2.0000      -0.848933       -23.1006
  19   2.0000      -0.835028       -22.7223
  20   2.0000      -0.811570       -22.0839
  21   2.0000      -0.794112       -21.6089
  22   2.0000      -0.739854       -20.1325
  23   2.0000      -0.686653       -18.6848
  24   2.0000      -0.647973       -17.6322
  25   2.0000      -0.628318       -17.0974
  26   2.0000      -0.622370       -16.9356
  27   2.0000      -0.609205       -16.5773
  28   2.0000      -0.590292       -16.0627
  29   2.0000      -0.587843       -15.9960
  30   2.0000      -0.572014       -15.5653
  31   2.0000      -0.534301       -14.5391
  32   2.0000      -0.524394       -14.2695
  33   2.0000      -0.520887       -14.1740
  34   2.0000      -0.513585       -13.9754
  35   2.0000      -0.491851       -13.3839
  36   2.0000      -0.485885       -13.2216
  37   2.0000      -0.474677       -12.9166
  38   2.0000      -0.473371       -12.8811
  39   2.0000      -0.444902       -12.1064
  40   2.0000      -0.429968       -11.7000
  41   2.0000      -0.423997       -11.5375
  42   2.0000      -0.330281        -8.9874
  43   2.0000      -0.319557        -8.6956
  44   0.0000       0.124793         3.3958
  45   0.0000       0.129327         3.5192
  46   0.0000       0.139478         3.7954
  47   0.0000       0.153309         4.1717
  48   0.0000       0.160882         4.3778

MULLIKEN ATOMIC CHARGES
-----------------------
   0 C :   -0.173116
   1 C :   -0.154685
   2 C :   -0.175472
   3 C :    0.034668
   4 C :   -0.184755
   5 C :   -0.144784
   6 C :   -0.079763
   7 C :   -0.208157
   8 C :   -0.192641
   9 C :   -0.191642
  10 C :   -0.199105
  11 C :   -0.249663
  12 H :    0.110285
  13 H :    0.100470
  14 H :    0.110563
  15 H :    0.084746
  16 H :    0.125750
  17 H :    0.111144
  18 H :    0.109933
  19 H :    0.117334
  20 H :    0.108847
  21 H :    0.096051
  22 H :    0.094439
  23 H :    0.145565
  24 H :    0.157758
  25 H :    0.147730
  26 H :    0.148247
  27 H :    0.150253
Sum of atomic charges:   -0.0000000

LOEWDIN ATOMIC CHARGES
----------------------
   0 C :    0.018151
   1 C :    0.025478
   2 C :    0.026779
   3 C :   -0.021973
   4 C :    0.030710
   5 C :    0.025428
   6 C :    0.004127
   7 C :    0.067638
   8 C :    0.058833
   9 C :    0.056468
  10 C :    0.058400
  11 C :    0.066749
  12 H :   -0.029429
  13 H :   -0.024346
  14 H :   -0.027092
  15 H :   -0.027960
  16 H :   -0.013758
  17 H :   -0.027020
  18 H :   -0.021578
  19 H :   -0.027478
  20 H :   -0.027341
  21 H :   -0.025307
  22 H :   -0.030298
  23 H :   -0.026501
  24 H :   -0.029497
  25 H :   -0.025696
  26 H :   -0.025538
  27 H :   -0.027947

  Mayer bond orders larger than 0.1
B(  0-C ,  1-C ) :   1.3929 B(  0-C ,  5-C ) :   1.3593 B(  0-C , 27-H ) :   0.9783
B(  1-C ,  2-C ) :   1.3760 B(  1-C , 25-H ) :   0.9802 B(  2-C ,  3-C ) :   1.3673
B(  2-C , 24-H ) :   0.9711 B(  3-C ,  4-C ) :   1.3610 B(  3-C ,  6-C ) :   0.9965
B(  4-C ,  5-C ) :   1.4066 B(  4-C , 23-H ) :   0.9771 B(  5-C , 26-H ) :   0.9787
B(  6-C ,  7-C ) :   0.9420 B(  6-C , 11-C ) :   0.9524 B(  6-C , 16-H ) :   0.9866
B(  7-C ,  8-C ) :   0.9462 B(  7-C , 12-H ) :   0.9923 B(  7-C , 13-H ) :   0.9885
B(  8-C ,  9-C ) :   0.9483 B(  8-C , 14-H ) :   0.9936 B(  8-C , 21-H ) :   0.9792
B(  9-C , 10-C ) :   0.9476 B(  9-C , 15-H ) :   0.9865 B(  9-C , 20-H ) :   0.9953
B( 10-C , 11-C ) :   0.9451 B( 10-C , 17-H ) :   0.9933 B( 10-C , 22-H ) :   0.9824
B( 11-C , 18-H ) :   0.9910 B( 11-C , 19-H ) :   0.9913

E(0)                                       ...   -463.891926521
E(0)                                       ...   -463.891926521
E(CORR)(strong-pairs)                      ...     -2.052260136
E(CORR)(weak-pairs)                        ...     -0.003009371
E(CORR)(corrected)                         ...     -2.055269507
E(TOT)                                     ...   -465.947196028
E(CCSD(T))                                 ...   -466.043085770
FINAL SINGLE POINT ENERGY      -466.043085770428

DIPOLE MOMENT
-------------
                                X             Y             Z
Electronic contribution:     -9.56579      -0.08352       0.77258
Nuclear contribution   :      9.73145       0.11997      -0.72370
                        -----------------------------------------
Total Dipole Moment    :      0.16565       0.03645       0.04888
                        -----------------------------------------
Magnitude (a.u.)       :      0.17652
Magnitude (Debye)      :      0.44868

Rotational constants in cm-1:     0.062921     0.020431     0.018295
Rotational constants in MHz :  1886.309840   612.500555   548.473777

                             ****ORCA TERMINATED NORMALLY****
TOTAL RUN TIME: 0 days 1 hours 3 minutes 42 seconds 156 msec
