                         Program Version 4.1.x  -  STABLE  -
|  1> ! RHF DLPNO-CCSD(T) cc-pVTZ RIJK cc-pVTZ/JK cc-pVTZ/C
|  2> ! KDIIS SOSCF TightSCF TightPNO
|  3>
|  4> %pal nprocs 8 end
|  5>
|  6> %maxcore 8000
|  7>
|  8> %scf maxiter 300
|  9>      shift shift 0.2 erroff 0.1 end
| 10> end
| 11>
| 12> * xyzfile 0 1 piperidine_eq.xyz
| 13>
| 14>
| 15>                          ****END OF INPUT****

CARTESIAN COORDINATES (ANGSTROEM)
---------------------------------
  C      0.059440    1.458400    0.230910
  C      1.294550    0.664770   -0.225930
  C      1.187500   -0.802300    0.205460
  N     -0.056030   -1.380300   -0.312250
  C     -1.248790   -0.703430    0.205060
  C     -1.236350    0.767880   -0.225510
  H     -0.096580   -2.374940   -0.111070
  H      2.030090   -1.380340   -0.189830
  H      1.241420   -0.853970    1.312140
  H     -1.307670   -0.751380    1.311640
  H     -2.135310   -1.210730   -0.191290
  H      1.374320    0.703420   -1.319890
  H      2.210140    1.106460    0.186510
  H     -2.112790    1.282190    0.187750
  H     -1.313250    0.813610   -1.319420
  H      0.062520    1.529530    1.328630
  H      0.101270    2.486290   -0.149410

 Total Charge           Charge          ....    0
 Multiplicity           Mult            ....    1
 Number of Electrons    NEL             ....   48
 Basis Dimension        Dim             ....  334

ORBITAL ENERGIES
----------------

  NO   OCC          E(Eh)            E(eV)
   0   2.0000     -15.533354      -422.6840
   1   2.0000     -11.242547      -305.9253
   2   2.0000     -11.242530      -305.9248
   3   2.0000     -11.215929      -305.2009
   4   2.0000     -11.213613      -305.1379
   5   2.0000     -11.213525      -305.1355
   6   2.0000      -1.202353       -32.7177
   7   2.0000      -1.049911       -28.5695
   8   2.0000      -1.006492       -27.3880
   9   2.0000      -0.859015       -23.3750
  10   2.0000      -0.836172       -22.7534
  11   2.0000      -0.749539       -20.3960
  12   2.0000      -0.678497       -18.4628
  13   2.0000      -0.616090       -16.7647
  14   2.0000      -0.607005       -16.5175
  15   2.0000      -0.580936       -15.8081
  16   2.0000      -0.555336       -15.1115
  17   2.0000      -0.540381       -14.7045
  18   2.0000      -0.526002       -14.3133
  19   2.0000      -0.483344       -13.1525
  20   2.0000      -0.463174       -12.6036
  21   2.0000      -0.440738       -11.9931
  22   2.0000      -0.439324       -11.9546
  23   2.0000      -0.361816        -9.8455
  24   0.0000       0.140200         3.8150
  25   0.0000       0.163990         4.4624
  26   0.0000       0.167367         4.5543
  27   0.0000       0.169266         4.6060
  28   0.0000       0.202094         5.4993

MULLIKEN ATOMIC CHARGES
-----------------------
   0 C :   -0.193372
   1 C :   -0.178743
   2 C :   -0.081304
   3 N :   -0.293103
   4 C :   -0.081294
   5 C :   -0.178807
   6 H :    0.120899
   7 H :    0.097358
   8 H :    0.061026
   9 H :    0.061053
  10 H :    0.097317
  11 H :    0.088890
  12 H :    0.100062
  13 H :    0.100081
  14 H :    0.088892
  15 H :    0.085476
  16 H :    0.105571
Sum of atomic charges:    0.0000000

LOEWDIN ATOMIC CHARGES
----------------------
   0 C :    0.054423
   1 C :    0.054785
   2 C :   -0.014642
   3 N :    0.292727
   4 C :   -0.014622
   5 C :    0.054848
   6 H :   -0.113564
   7 H :   -0.030943
   8 H :   -0.043936
   9 H :   -0.043958
  10 H :   -0.030941
  11 H :   -0.026035
  12 H :   -0.027841
  13 H :   -0.027859
  14 H :   -0.026037
  15 H :   -0.028352
  16 H :   -0.028053

  Mayer bond orders larger than 0.1
B(  0-C ,  1-C ) :   0.9536 B(  0-C ,  5-C ) :   0.9536 B(  0-C , 15-H ) :   0.9850
B(  0-C , 16-H ) :   0.9934 B(  1-C ,  2-C ) :   0.9511 B(  1-C , 11-H ) :   0.9809
B(  1-C , 12-H ) :   0.9928 B(  2-C ,  3-N ) :   0.9844 B(  2-C ,  7-H ) :   0.9926
B(  2-C ,  8-H ) :   0.9810 B(  3-N ,  4-C ) :   0.9844 B(  3-N ,  6-H ) :   0.9938
B(  4-C ,  5-C ) :   0.9511 B(  4-C ,  9-H ) :   0.9810 B(  4-C , 10-H ) :   0.9926
B(  5-C , 13-H ) :   0.9928 B(  5-C , 14-H ) :   0.9809

E(0)                                       ...   -250.275421487
E(0)                                       ...   -250.275421487
E(CORR)(strong-pairs)                      ...     -1.129648044
E(CORR)(weak-pairs)                        ...     -0.001076469
E(CORR)(corrected)                         ...     -1.130724514
E(TOT)                                     ...   -251.406146001
E(CCSD(T))                                 ...   -251.451062688
FINAL SINGLE POINT ENERGY      -251.451062687594

DIPOLE MOMENT
-------------
                                X             Y             Z
Electronic contribution:     -0.06044      -1.50395      -0.77080
Nuclear contribution   :      0.05698       1.42081       1.10521
                        -----------------------------------------
Total Dipole Moment    :     -0.00346      -0.08314       0.33440
                        -----------------------------------------
Magnitude (a.u.)       :      0.34460
Magnitude (Debye)      :      0.87591

Rotational constants in cm-1:     0.149836     0.147251     0.083999
Rotational constants in MHz :  4491.959580  4414.468501  2518.239865

                             ****ORCA TERMINATED NORMALLY****
TOTAL RUN TIME: 0 days 0 hours 6 minutes 58 seconds 226 msec
