                         Program Version 4.1.x  -  STABLE  -
|  1> ! RHF DLPNO-CCSD(T) cc-pVTZ RIJK cc-pVTZ/JK cc-pVTZ/C
|  2> ! KDIIS SOSCF TightSCF TightPNO
|  3>
|  4> %pal nprocs 8 end
|  5>
|  6> %maxcore 8000
|  7>
|  8> %scf maxiter 300
|  9>      shift shift 0.2 erroff 0.1 end
| 10> end
| 11>
| 12> * xyzfile 0 1 piperidine_ax.xyz
| 13>
| 14>
| 15>                          ****END OF INPUT****

CARTESIAN COORDINATES (ANGSTROEM)
---------------------------------
  C     -0.000850    1.460800    0.221290
  C      1.265220    0.713270   -0.229120
  C      1.220830   -0.757720    0.222830
  N      0.000840   -1.471090   -0.174000
  C     -1.219980   -0.759110    0.222800
  C     -1.266030    0.711860   -0.229100
  H      0.000930   -1.615900   -1.181720
  H      2.084060   -1.310820   -0.164320
  H      1.283470   -0.801750    1.320000
  H     -1.282560   -0.803220    1.319970
  H     -2.082570   -1.313180   -0.164370
  H      1.341190    0.750530   -1.326000
  H      2.165230    1.201510    0.167600
  H     -2.166570    1.199100    0.167630
  H     -1.342030    0.749050   -1.325970
  H     -0.000890    1.540560    1.318540
  H     -0.001450    2.487100   -0.165600

 Total Charge           Charge          ....    0
 Multiplicity           Mult            ....    1
 Number of Electrons    NEL             ....   48
 Basis Dimension        Dim             ....  334

ORBITAL ENERGIES
----------------

  NO   OCC          E(Eh)            E(eV)
   0   2.0000     -15.532987      -422.6741
   1   2.0000     -11.242167      -305.9149
   2   2.0000     -11.242152      -305.9145
   3   2.0000     -11.218925      -305.2825
   4   2.0000     -11.216518      -305.2170
   5   2.0000     -11.216436      -305.2147
   6   2.0000      -1.201476       -32.6938
   7   2.0000      -1.050995       -28.5990
   8   2.0000      -1.006275       -27.3821
   9   2.0000      -0.858953       -23.3733
  10   2.0000      -0.840468       -22.8703
  11   2.0000      -0.767174       -20.8759
  12   2.0000      -0.659258       -17.9393
  13   2.0000      -0.613109       -16.6835
  14   2.0000      -0.605266       -16.4701
  15   2.0000      -0.603706       -16.4277
  16   2.0000      -0.543817       -14.7980
  17   2.0000      -0.525952       -14.3119
  18   2.0000      -0.519024       -14.1234
  19   2.0000      -0.488019       -13.2797
  20   2.0000      -0.485450       -13.2098
  21   2.0000      -0.455656       -12.3990
  22   2.0000      -0.444223       -12.0879
  23   2.0000      -0.352947        -9.6042
  24   0.0000       0.139175         3.7871
  25   0.0000       0.154176         4.1954
  26   0.0000       0.164830         4.4852
  27   0.0000       0.174832         4.7574
  28   0.0000       0.209168         5.6918

MULLIKEN ATOMIC CHARGES
-----------------------
   0 C :   -0.189937
   1 C :   -0.195866
   2 C :   -0.087445
   3 N :   -0.281197
   4 C :   -0.087449
   5 C :   -0.195862
   6 H :    0.100117
   7 H :    0.104067
   8 H :    0.082460
   9 H :    0.082456
  10 H :    0.104073
  11 H :    0.081877
  12 H :    0.102149
  13 H :    0.102153
  14 H :    0.081876
  15 H :    0.088705
  16 H :    0.107823
Sum of atomic charges:    0.0000000

LOEWDIN ATOMIC CHARGES
----------------------
   0 C :    0.053076
   1 C :    0.047460
   2 C :   -0.016651
   3 N :    0.290232
   4 C :   -0.016635
   5 C :    0.047450
   6 H :   -0.114446
   7 H :   -0.029783
   8 H :   -0.028748
   9 H :   -0.028750
  10 H :   -0.029787
  11 H :   -0.031520
  12 H :   -0.027440
  13 H :   -0.027438
  14 H :   -0.031521
  15 H :   -0.027044
  16 H :   -0.028454

  Mayer bond orders larger than 0.1
B(  0-C ,  1-C ) :   0.9424 B(  0-C ,  5-C ) :   0.9424 B(  0-C , 15-H ) :   0.9852
B(  0-C , 16-H ) :   0.9952 B(  1-C ,  2-C ) :   0.9397 B(  1-C , 11-H ) :   0.9815
B(  1-C , 12-H ) :   0.9877 B(  2-C ,  3-N ) :   1.0022 B(  2-C ,  7-H ) :   0.9981
B(  2-C ,  8-H ) :   0.9874 B(  3-N ,  4-C ) :   1.0022 B(  3-N ,  6-H ) :   1.0007
B(  4-C ,  5-C ) :   0.9397 B(  4-C ,  9-H ) :   0.9874 B(  4-C , 10-H ) :   0.9981
B(  5-C , 13-H ) :   0.9877 B(  5-C , 14-H ) :   0.9815

E(0)                                       ...   -250.273880961
E(0)                                       ...   -250.273880961
E(CORR)(strong-pairs)                      ...     -1.129953926
E(CORR)(weak-pairs)                        ...     -0.001072529
E(CORR)(corrected)                         ...     -1.131026455
E(TOT)                                     ...   -251.404907416
E(CCSD(T))                                 ...   -251.449958937
FINAL SINGLE POINT ENERGY      -251.449958936725

DIPOLE MOMENT
-------------
                                X             Y             Z
Electronic contribution:      0.00098      -1.79402      -0.19674
Nuclear contribution   :     -0.00121       2.19610      -0.03732
                        -----------------------------------------
Total Dipole Moment    :     -0.00023       0.40208      -0.23406
                        -----------------------------------------
Magnitude (a.u.)       :      0.46525
Magnitude (Debye)      :      1.18257

Rotational constants in cm-1:     0.148877     0.145581     0.083708
Rotational constants in MHz :  4463.214557  4364.410999  2509.511634

                             ****ORCA TERMINATED NORMALLY****
TOTAL RUN TIME: 0 days 0 hours 7 minutes 6 seconds 274 msec
