                         Program Version 4.1.x  -  STABLE  -
|  1> ! RHF DLPNO-CCSD(T) cc-pVTZ RIJK cc-pVTZ/JK cc-pVTZ/C
|  2> ! KDIIS SOSCF TightSCF TightPNO
|  3>
|  4> %pal nprocs 8 end
|  5>
|  6> %maxcore 8000
|  7>
|  8> %scf maxiter 300
|  9>      shift shift 0.2 erroff 0.1 end
| 10> end
| 11>
| 12> * xyzfile 0 1 propene_H_H_anti.xyz
| 13>
| 14>
| 15>                          ****END OF INPUT****

CARTESIAN COORDINATES (ANGSTROEM)
---------------------------------
  C      1.232560    0.164380    0.000000
  C     -0.133230   -0.467540   -0.000010
  C     -1.278600    0.228840    0.000000
  H      1.183990    1.277130   -0.000100
  H      1.800900   -0.153920    0.903440
  H      1.800990   -0.154090   -0.903320
  H     -0.174850   -1.570730    0.000010
  H     -2.254880   -0.282870    0.000000
  H     -1.280550    1.330440   -0.000010

 Total Charge           Charge          ....    0
 Multiplicity           Mult            ....    1
 Number of Electrons    NEL             ....   24
 Basis Dimension        Dim             ....  174

ORBITAL ENERGIES
----------------

  NO   OCC          E(Eh)            E(eV)
   0   2.0000     -11.237625      -305.7913
   1   2.0000     -11.229749      -305.5770
   2   2.0000     -11.221961      -305.3651
   3   2.0000      -1.058864       -28.8131
   4   2.0000      -0.924806       -25.1653
   5   2.0000      -0.750635       -20.4258
   6   2.0000      -0.631141       -17.1742
   7   2.0000      -0.578160       -15.7325
   8   2.0000      -0.564141       -15.3511
   9   2.0000      -0.514535       -14.0012
  10   2.0000      -0.489125       -13.3098
  11   2.0000      -0.357088        -9.7168
  12   0.0000       0.146827         3.9954
  13   0.0000       0.162701         4.4273
  14   0.0000       0.176266         4.7964
  15   0.0000       0.183511         4.9936
  16   0.0000       0.217638         5.9222

MULLIKEN ATOMIC CHARGES
-----------------------
   0 C :   -0.227805
   1 C :   -0.108647
   2 C :   -0.331022
   3 H :    0.088232
   4 H :    0.087619
   5 H :    0.087619
   6 H :    0.143297
   7 H :    0.131899
   8 H :    0.128807
Sum of atomic charges:   -0.0000000

LOEWDIN ATOMIC CHARGES
----------------------
   0 C :    0.088163
   1 C :    0.007621
   2 C :    0.058370
   3 H :   -0.016146
   4 H :   -0.019136
   5 H :   -0.019138
   6 H :   -0.024955
   7 H :   -0.036599
   8 H :   -0.038180

  Mayer bond orders larger than 0.1
B(  0-C ,  1-C ) :   0.9548 B(  0-C ,  3-H ) :   0.9849 B(  0-C ,  4-H ) :   0.9756
B(  0-C ,  5-H ) :   0.9756 B(  1-C ,  2-C ) :   1.8766 B(  1-C ,  6-H ) :   0.9619
B(  2-C ,  7-H ) :   0.9764 B(  2-C ,  8-H ) :   0.9665

E(0)                                       ...   -117.112785754
E(0)                                       ...   -117.112785754
E(CORR)(strong-pairs)                      ...     -0.545087159
E(CORR)(weak-pairs)                        ...     -0.000274154
E(CORR)(corrected)                         ...     -0.545361313
E(TOT)                                     ...   -117.658147068
E(CCSD(T))                                 ...   -117.680177619
FINAL SINGLE POINT ENERGY      -117.680177618967

DIPOLE MOMENT
-------------
                                X             Y             Z
Electronic contribution:     -1.00742      -0.50994      -0.00002
Nuclear contribution   :      1.15210       0.47767       0.00003
                        -----------------------------------------
Total Dipole Moment    :      0.14468      -0.03227       0.00001
                        -----------------------------------------
Magnitude (a.u.)       :      0.14824
Magnitude (Debye)      :      0.37679

Rotational constants in cm-1:     1.496772     0.309453     0.269948
Rotational constants in MHz : 44872.096342  9277.167960  8092.832028

                             ****ORCA TERMINATED NORMALLY****
TOTAL RUN TIME: 0 days 0 hours 1 minutes 20 seconds 83 msec
