                         Program Version 4.1.x  -  STABLE  -
|  1> ! RHF DLPNO-CCSD(T) cc-pVTZ RIJK cc-pVTZ/JK cc-pVTZ/C
|  2> ! KDIIS SOSCF TightSCF TightPNO
|  3>
|  4> %pal nprocs 8 end
|  5>
|  6> %maxcore 8000
|  7>
|  8> %scf maxiter 300
|  9>      shift shift 0.2 erroff 0.1 end
| 10> end
| 11>
| 12> * xyzfile 0 1 propylamine_g.xyz
| 13>
| 14>
| 15>                          ****END OF INPUT****

CARTESIAN COORDINATES (ANGSTROEM)
---------------------------------
  C      1.579110   -0.537180    0.129550
  C      0.669330    0.614240   -0.312070
  C     -0.730900    0.572960    0.312140
  N     -1.471240   -0.621810   -0.117690
  H     -1.702690   -0.567230   -1.106780
  H     -1.254380    1.516170    0.078300
  H     -0.637420    0.525750    1.404660
  H      0.568640    0.609190   -1.407480
  H      1.131860    1.576590   -0.055510
  H     -2.345270   -0.716920    0.391170
  H      2.555290   -0.482030   -0.364780
  H      1.751580   -0.504990    1.212340
  H      1.125810   -1.503980   -0.105780

 Total Charge           Charge          ....    0
 Multiplicity           Mult            ....    1
 Number of Electrons    NEL             ....   34
 Basis Dimension        Dim             ....  246

ORBITAL ENERGIES
----------------

  NO   OCC          E(Eh)            E(eV)
   0   2.0000     -15.533094      -422.6770
   1   2.0000     -11.245246      -305.9987
   2   2.0000     -11.216318      -305.2115
   3   2.0000     -11.202959      -304.8480
   4   2.0000      -1.169926       -31.8353
   5   2.0000      -1.025136       -27.8954
   6   2.0000      -0.897873       -24.4324
   7   2.0000      -0.787753       -21.4358
   8   2.0000      -0.657589       -17.8939
   9   2.0000      -0.623360       -16.9625
  10   2.0000      -0.598820       -16.2947
  11   2.0000      -0.554811       -15.0972
  12   2.0000      -0.526116       -14.3163
  13   2.0000      -0.489608       -13.3229
  14   2.0000      -0.471574       -12.8322
  15   2.0000      -0.465556       -12.6684
  16   2.0000      -0.384109       -10.4521
  17   0.0000       0.139795         3.8040
  18   0.0000       0.167522         4.5585
  19   0.0000       0.175295         4.7700
  20   0.0000       0.182770         4.9734
  21   0.0000       0.216913         5.9025

MULLIKEN ATOMIC CHARGES
-----------------------
   0 C :   -0.281800
   1 C :   -0.160939
   2 C :   -0.060198
   3 N :   -0.385306
   4 H :    0.139539
   5 H :    0.076887
   6 H :    0.081725
   7 H :    0.078908
   8 H :    0.090843
   9 H :    0.143060
  10 H :    0.093456
  11 H :    0.079942
  12 H :    0.103882
Sum of atomic charges:   -0.0000000

LOEWDIN ATOMIC CHARGES
----------------------
   0 C :    0.105211
   1 C :    0.040279
   2 C :   -0.015675
   3 N :    0.317236
   4 H :   -0.109208
   5 H :   -0.044467
   6 H :   -0.030827
   7 H :   -0.030625
   8 H :   -0.027107
   9 H :   -0.109884
  10 H :   -0.032707
  11 H :   -0.031854
  12 H :   -0.030373

  Mayer bond orders larger than 0.1
B(  0-C ,  1-C ) :   0.9517 B(  0-C , 10-H ) :   0.9873 B(  0-C , 11-H ) :   0.9832
B(  0-C , 12-H ) :   0.9742 B(  1-C ,  2-C ) :   0.9533 B(  1-C ,  7-H ) :   0.9837
B(  1-C ,  8-H ) :   0.9883 B(  2-C ,  3-N ) :   0.9716 B(  2-C ,  5-H ) :   0.9935
B(  2-C ,  6-H ) :   0.9814 B(  3-N ,  4-H ) :   0.9891 B(  3-N ,  9-H ) :   0.9890

E(0)                                       ...   -173.350539084
E(0)                                       ...   -173.350539084
E(CORR)(strong-pairs)                      ...     -0.797628043
E(CORR)(weak-pairs)                        ...     -0.000544169
E(CORR)(corrected)                         ...     -0.798172212
E(TOT)                                     ...   -174.148711296
E(CCSD(T))                                 ...   -174.177825372
FINAL SINGLE POINT ENERGY      -174.177825371621

DIPOLE MOMENT
-------------
                                X             Y             Z
Electronic contribution:     -1.62776      -0.11347      -0.14402
Nuclear contribution   :      1.27984       0.48491       0.04909
                        -----------------------------------------
Total Dipole Moment    :     -0.34791       0.37144      -0.09493
                        -----------------------------------------
Magnitude (a.u.)       :      0.51771
Magnitude (Debye)      :      1.31592

Rotational constants in cm-1:     0.466125     0.160788     0.138726
Rotational constants in MHz : 13974.064908  4820.310294  4158.912299

                             ****ORCA TERMINATED NORMALLY****
TOTAL RUN TIME: 0 days 0 hours 2 minutes 12 seconds 950 msec
