                         Program Version 4.1.x  -  STABLE  -
|  1> ! RHF DLPNO-CCSD(T) cc-pVTZ RIJK cc-pVTZ/JK cc-pVTZ/C
|  2> ! KDIIS SOSCF TightSCF TightPNO
|  3>
|  4> %pal nprocs 8 end
|  5>
|  6> %maxcore 8000
|  7>
|  8> %scf maxiter 300
|  9>      shift shift 0.2 erroff 0.1 end
| 10> end
| 11>
| 12> * xyzfile 0 1 propen_3_ol_syn_a.xyz
| 13>
| 14>
| 15>                          ****END OF INPUT****

CARTESIAN COORDINATES (ANGSTROEM)
---------------------------------
  C     -1.516830   -0.531790    0.000010
  C     -0.782550    0.582530   -0.000020
  C      0.717030    0.634920    0.000020
  O      1.259850   -0.680820   -0.000040
  H     -2.601690   -0.486590    0.000000
  H     -1.051350   -1.511870    0.000060
  H     -1.266850    1.558970   -0.000060
  H      1.056220    1.197540   -0.885920
  H      1.056180    1.197440    0.886050
  H      2.222780   -0.622840    0.000130

 Total Charge           Charge          ....    0
 Multiplicity           Mult            ....    1
 Number of Electrons    NEL             ....   32
 Basis Dimension        Dim             ....  204

ORBITAL ENERGIES
----------------

  NO   OCC          E(Eh)            E(eV)
   0   2.0000     -20.557163      -559.3888
   1   2.0000     -11.284875      -307.0771
   2   2.0000     -11.230860      -305.6072
   3   2.0000     -11.215485      -305.1889
   4   2.0000      -1.359320       -36.9890
   5   2.0000      -1.052380       -28.6367
   6   2.0000      -0.920327       -25.0434
   7   2.0000      -0.751129       -20.4393
   8   2.0000      -0.704692       -19.1757
   9   2.0000      -0.631626       -17.1874
  10   2.0000      -0.611049       -16.6275
  11   2.0000      -0.590066       -16.0565
  12   2.0000      -0.514823       -14.0091
  13   2.0000      -0.489573       -13.3220
  14   2.0000      -0.459321       -12.4988
  15   2.0000      -0.356562        -9.7025
  16   0.0000       0.134328         3.6552
  17   0.0000       0.165622         4.5068
  18   0.0000       0.171947         4.6789
  19   0.0000       0.185045         5.0353
  20   0.0000       0.212280         5.7764

MULLIKEN ATOMIC CHARGES
-----------------------
   0 C :   -0.329165
   1 C :   -0.167329
   2 C :    0.127282
   3 O :   -0.398077
   4 H :    0.137693
   5 H :    0.157009
   6 H :    0.148155
   7 H :    0.053489
   8 H :    0.053484
   9 H :    0.217459
Sum of atomic charges:   -0.0000000

LOEWDIN ATOMIC CHARGES
----------------------
   0 C :    0.085228
   1 C :    0.009225
   2 C :   -0.051906
   3 O :    0.323255
   4 H :   -0.041350
   5 H :   -0.038676
   6 H :   -0.028715
   7 H :   -0.033620
   8 H :   -0.033615
   9 H :   -0.189825

  Mayer bond orders larger than 0.1
B(  0-C ,  1-C ) :   1.8909 B(  0-C ,  4-H ) :   0.9751 B(  0-C ,  5-H ) :   0.9541
B(  1-C ,  2-C ) :   0.9682 B(  1-C ,  6-H ) :   0.9610 B(  2-C ,  3-O ) :   1.0056
B(  2-C ,  7-H ) :   0.9736 B(  2-C ,  8-H ) :   0.9736 B(  3-O ,  9-H ) :   0.9955

E(0)                                       ...   -191.995434929
E(0)                                       ...   -191.995434929
E(CORR)(strong-pairs)                      ...     -0.773755767
E(CORR)(weak-pairs)                        ...     -0.000462526
E(CORR)(corrected)                         ...     -0.774218293
E(TOT)                                     ...   -192.769653222
E(CCSD(T))                                 ...   -192.799838413
FINAL SINGLE POINT ENERGY      -192.799838413026

DIPOLE MOMENT
-------------
                                X             Y             Z
Electronic contribution:      1.05903      -0.80481      -0.00012
Nuclear contribution   :     -0.58448       1.36785       0.00027
                        -----------------------------------------
Total Dipole Moment    :      0.47455       0.56303       0.00014
                        -----------------------------------------
Magnitude (a.u.)       :      0.73634
Magnitude (Debye)      :      1.87164

Rotational constants in cm-1:     0.571711     0.198345     0.151444
Rotational constants in MHz : 17139.477587  5946.231781  4540.172370

                             ****ORCA TERMINATED NORMALLY****
TOTAL RUN TIME: 0 days 0 hours 1 minutes 51 seconds 45 msec
