                         Program Version 4.1.x  -  STABLE  -
|  1> ! RHF DLPNO-CCSD(T) cc-pVTZ RIJK cc-pVTZ/JK cc-pVTZ/C
|  2> ! KDIIS SOSCF TightSCF TightPNO
|  3>
|  4> %pal nprocs 8 end
|  5>
|  6> %maxcore 8000
|  7>
|  8> %scf maxiter 300
|  9>      shift shift 0.2 erroff 0.1 end
| 10> end
| 11>
| 12> * xyzfile 0 1 propen_3_ol_skew_a.xyz
| 13>
| 14>
| 15>                          ****END OF INPUT****

CARTESIAN COORDINATES (ANGSTROEM)
---------------------------------
  C     -1.841190    0.076440   -0.217700
  C     -0.671240   -0.361140    0.253580
  C      0.586230    0.454760    0.286690
  O      1.632860   -0.300470   -0.336920
  H     -2.732660   -0.543120   -0.192040
  H     -1.948480    1.071500   -0.644070
  H     -0.584030   -1.367180    0.662090
  H      0.429580    1.413250   -0.228960
  H      0.852710    0.671280    1.333670
  H      2.477230    0.137710   -0.170710

 Total Charge           Charge          ....    0
 Multiplicity           Mult            ....    1
 Number of Electrons    NEL             ....   32
 Basis Dimension        Dim             ....  204

ORBITAL ENERGIES
----------------

  NO   OCC          E(Eh)            E(eV)
   0   2.0000     -20.554995      -559.3298
   1   2.0000     -11.283709      -307.0453
   2   2.0000     -11.234519      -305.7068
   3   2.0000     -11.226385      -305.4855
   4   2.0000      -1.354082       -36.8464
   5   2.0000      -1.059485       -28.8301
   6   2.0000      -0.916515       -24.9397
   7   2.0000      -0.764968       -20.8158
   8   2.0000      -0.689956       -18.7747
   9   2.0000      -0.653655       -17.7869
  10   2.0000      -0.612011       -16.6537
  11   2.0000      -0.565860       -15.3978
  12   2.0000      -0.536302       -14.5935
  13   2.0000      -0.485780       -13.2187
  14   2.0000      -0.453997       -12.3539
  15   2.0000      -0.368042       -10.0149
  16   0.0000       0.133043         3.6203
  17   0.0000       0.156913         4.2698
  18   0.0000       0.173612         4.7242
  19   0.0000       0.179610         4.8874
  20   0.0000       0.202719         5.5163

MULLIKEN ATOMIC CHARGES
-----------------------
   0 C :   -0.328836
   1 C :   -0.124766
   2 C :    0.101770
   3 O :   -0.410187
   4 H :    0.141591
   5 H :    0.133797
   6 H :    0.153368
   7 H :    0.057334
   8 H :    0.055717
   9 H :    0.220211
Sum of atomic charges:   -0.0000000

LOEWDIN ATOMIC CHARGES
----------------------
   0 C :    0.084117
   1 C :    0.021322
   2 C :   -0.044845
   3 O :    0.306897
   4 H :   -0.038342
   5 H :   -0.040539
   6 H :   -0.026850
   7 H :   -0.033531
   8 H :   -0.035826
   9 H :   -0.192405

  Mayer bond orders larger than 0.1
B(  0-C ,  1-C ) :   1.8698 B(  0-C ,  4-H ) :   0.9735 B(  0-C ,  5-H ) :   0.9654
B(  1-C ,  2-C ) :   0.9754 B(  1-C ,  6-H ) :   0.9563 B(  2-C ,  3-O ) :   0.9956
B(  2-C ,  7-H ) :   0.9792 B(  2-C ,  8-H ) :   0.9738 B(  3-O ,  9-H ) :   0.9929

E(0)                                       ...   -191.994905317
E(0)                                       ...   -191.994905317
E(CORR)(strong-pairs)                      ...     -0.773407017
E(CORR)(weak-pairs)                        ...     -0.000456597
E(CORR)(corrected)                         ...     -0.773863614
E(TOT)                                     ...   -192.768768930
E(CCSD(T))                                 ...   -192.798950017
FINAL SINGLE POINT ENERGY      -192.798950016828

DIPOLE MOMENT
-------------
                                X             Y             Z
Electronic contribution:      1.67240      -0.87455      -0.40177
Nuclear contribution   :     -1.53134       1.42661       0.78089
                        -----------------------------------------
Total Dipole Moment    :      0.14106       0.55206       0.37911
                        -----------------------------------------
Magnitude (a.u.)       :      0.68439
Magnitude (Debye)      :      1.73959

Rotational constants in cm-1:     0.926216     0.142325     0.136783
Rotational constants in MHz : 27767.265780  4266.787621  4100.650826

                             ****ORCA TERMINATED NORMALLY****
TOTAL RUN TIME: 0 days 0 hours 1 minutes 40 seconds 437 msec
