                         Program Version 4.1.x  -  STABLE  -
|  1> ! RHF DLPNO-CCSD(T) cc-pVTZ RIJK cc-pVTZ/JK cc-pVTZ/C
|  2> ! KDIIS SOSCF TightSCF TightPNO
|  3>
|  4> %pal nprocs 8 end
|  5>
|  6> %maxcore 8000
|  7>
|  8> %scf maxiter 300
|  9>      shift shift 0.2 erroff 0.1 end
| 10> end
| 11>
| 12> * xyzfile 0 1 propane_ecl.xyz
| 13>
| 14>
| 15>                          ****END OF INPUT****

CARTESIAN COORDINATES (ANGSTROEM)
---------------------------------
  C     -1.276410   -0.266290    0.000000
  C     -0.003520    0.590590    0.000000
  C      1.278540   -0.258230    0.000000
  H     -2.189950    0.372700   -0.000040
  H     -1.320490   -0.918670   -0.902590
  H     -1.320510   -0.918610    0.902630
  H     -0.014890    1.258900   -0.894550
  H     -0.014890    1.258870    0.894560
  H      1.905350   -0.049780   -0.897860
  H      1.905350   -0.049760    0.897850
  H      1.058310   -1.350070    0.000000

 Total Charge           Charge          ....    0
 Multiplicity           Mult            ....    1
 Number of Electrons    NEL             ....   26
 Basis Dimension        Dim             ....  202

ORBITAL ENERGIES
----------------

  NO   OCC          E(Eh)            E(eV)
   0   2.0000     -11.224815      -305.4427
   1   2.0000     -11.218916      -305.2822
   2   2.0000     -11.217321      -305.2388
   3   2.0000      -1.045377       -28.4461
   4   2.0000      -0.916963       -24.9518
   5   2.0000      -0.791893       -21.5485
   6   2.0000      -0.615391       -16.7456
   7   2.0000      -0.592112       -16.1122
   8   2.0000      -0.541473       -14.7342
   9   2.0000      -0.530343       -14.4314
  10   2.0000      -0.474247       -12.9049
  11   2.0000      -0.469374       -12.7723
  12   2.0000      -0.457537       -12.4502
  13   0.0000       0.139425         3.7939
  14   0.0000       0.175824         4.7844
  15   0.0000       0.181277         4.9328
  16   0.0000       0.187607         5.1050
  17   0.0000       0.225862         6.1460

MULLIKEN ATOMIC CHARGES
-----------------------
   0 C :   -0.271746
   1 C :   -0.133124
   2 C :   -0.278763
   3 H :    0.089389
   4 H :    0.082866
   5 H :    0.082868
   6 H :    0.082717
   7 H :    0.082721
   8 H :    0.089084
   9 H :    0.089085
  10 H :    0.084903
Sum of atomic charges:   -0.0000000

LOEWDIN ATOMIC CHARGES
----------------------
   0 C :    0.085022
   1 C :    0.025977
   2 C :    0.089732
   3 H :   -0.025909
   4 H :   -0.026139
   5 H :   -0.026140
   6 H :   -0.023243
   7 H :   -0.023247
   8 H :   -0.025471
   9 H :   -0.025473
  10 H :   -0.025110

  Mayer bond orders larger than 0.1
B(  0-C ,  1-C ) :   0.9554 B(  0-C ,  3-H ) :   0.9870 B(  0-C ,  4-H ) :   0.9808
B(  0-C ,  5-H ) :   0.9808 B(  1-C ,  2-C ) :   0.9169 B(  1-C ,  6-H ) :   0.9893
B(  1-C ,  7-H ) :   0.9893 B(  2-C ,  8-H ) :   0.9887 B(  2-C ,  9-H ) :   0.9887
B(  2-C , 10-H ) :   0.9846

E(0)                                       ...   -118.297786891
E(0)                                       ...   -118.297786891
E(CORR)(strong-pairs)                      ...     -0.587256839
E(CORR)(weak-pairs)                        ...     -0.000345199
E(CORR)(corrected)                         ...     -0.587602037
E(TOT)                                     ...   -118.885388929
E(CCSD(T))                                 ...   -118.906218357
FINAL SINGLE POINT ENERGY      -118.906218357031

DIPOLE MOMENT
-------------
                                X             Y             Z
Electronic contribution:     -0.00740       0.46842       0.00000
Nuclear contribution   :      0.00919      -0.43897       0.00000
                        -----------------------------------------
Total Dipole Moment    :      0.00179       0.02945       0.00000
                        -----------------------------------------
Magnitude (a.u.)       :      0.02950
Magnitude (Debye)      :      0.07499

Rotational constants in cm-1:     0.957937     0.276893     0.245318
Rotational constants in MHz : 28718.217267  8301.041820  7354.446592

                             ****ORCA TERMINATED NORMALLY****
TOTAL RUN TIME: 0 days 0 hours 1 minutes 20 seconds 477 msec
