                         Program Version 4.1.x  -  STABLE  -
|  1> ! RHF DLPNO-CCSD(T) cc-pVTZ RIJK cc-pVTZ/JK cc-pVTZ/C
|  2> ! KDIIS SOSCF TightSCF TightPNO
|  3>
|  4> %pal nprocs 8 end
|  5>
|  6> %maxcore 8000
|  7>
|  8> %scf maxiter 300
|  9>      shift shift 0.2 erroff 0.1 end
| 10> end
| 11>
| 12> * xyzfile 0 1 propane_low.xyz
| 13>
| 14>
| 15>                          ****END OF INPUT****

CARTESIAN COORDINATES (ANGSTROEM)
---------------------------------
  C      1.269570   -0.264230    0.000000
  C      0.000000    0.596880    0.000000
  C     -1.269570   -0.264230    0.000000
  H      2.184830    0.372150    0.000000
  H      1.310990   -0.918200    0.901390
  H      1.310980   -0.918210   -0.901390
  H      0.000000    1.258980    0.899210
  H     -0.000010    1.258990   -0.899200
  H     -2.184820    0.372160    0.000000
  H     -1.310990   -0.918200   -0.901390
  H     -1.310990   -0.918210    0.901390

 Total Charge           Charge          ....    0
 Multiplicity           Mult            ....    1
 Number of Electrons    NEL             ....   26
 Basis Dimension        Dim             ....  202

ORBITAL ENERGIES
----------------

  NO   OCC          E(Eh)            E(eV)
   0   2.0000     -11.225628      -305.4649
   1   2.0000     -11.218487      -305.2706
   2   2.0000     -11.218451      -305.2696
   3   2.0000      -1.046864       -28.4866
   4   2.0000      -0.916751       -24.9461
   5   2.0000      -0.791115       -21.5273
   6   2.0000      -0.618333       -16.8257
   7   2.0000      -0.590828       -16.0772
   8   2.0000      -0.544631       -14.8202
   9   2.0000      -0.525149       -14.2900
  10   2.0000      -0.472755       -12.8643
  11   2.0000      -0.470470       -12.8021
  12   2.0000      -0.465021       -12.6539
  13   0.0000       0.139628         3.7995
  14   0.0000       0.176847         4.8122
  15   0.0000       0.182958         4.9785
  16   0.0000       0.188719         5.1353
  17   0.0000       0.217306         5.9132

MULLIKEN ATOMIC CHARGES
-----------------------
   0 C :   -0.268295
   1 C :   -0.135904
   2 C :   -0.268295
   3 H :    0.091692
   4 H :    0.081736
   5 H :    0.081733
   6 H :    0.081086
   7 H :    0.081088
   8 H :    0.091692
   9 H :    0.081735
  10 H :    0.081733
Sum of atomic charges:    0.0000000

LOEWDIN ATOMIC CHARGES
----------------------
   0 C :    0.087674
   1 C :    0.024802
   2 C :    0.087675
   3 H :   -0.025399
   4 H :   -0.025930
   5 H :   -0.025928
   6 H :   -0.022818
   7 H :   -0.022819
   8 H :   -0.025400
   9 H :   -0.025930
  10 H :   -0.025928

  Mayer bond orders larger than 0.1
B(  0-C ,  1-C ) :   0.9536 B(  0-C ,  3-H ) :   0.9869 B(  0-C ,  4-H ) :   0.9811
B(  0-C ,  5-H ) :   0.9811 B(  1-C ,  2-C ) :   0.9536 B(  1-C ,  6-H ) :   0.9834
B(  1-C ,  7-H ) :   0.9834 B(  2-C ,  8-H ) :   0.9869 B(  2-C ,  9-H ) :   0.9811
B(  2-C , 10-H ) :   0.9811

E(0)                                       ...   -118.303271955
E(0)                                       ...   -118.303271955
E(CORR)(strong-pairs)                      ...     -0.586883636
E(CORR)(weak-pairs)                        ...     -0.000346681
E(CORR)(corrected)                         ...     -0.587230317
E(TOT)                                     ...   -118.890502272
E(CCSD(T))                                 ...   -118.911318050
FINAL SINGLE POINT ENERGY      -118.911318050123

DIPOLE MOMENT
-------------
                                X             Y             Z
Electronic contribution:      0.00001       0.48645      -0.00001
Nuclear contribution   :     -0.00001      -0.45460       0.00001
                        -----------------------------------------
Total Dipole Moment    :     -0.00000       0.03186       0.00000
                        -----------------------------------------
Magnitude (a.u.)       :      0.03186
Magnitude (Debye)      :      0.08098

Rotational constants in cm-1:     0.950657     0.280130     0.247548
Rotational constants in MHz : 28499.982598  8398.078359  7421.308808

                             ****ORCA TERMINATED NORMALLY****
TOTAL RUN TIME: 0 days 0 hours 1 minutes 13 seconds 391 msec
