                         Program Version 4.1.x  -  STABLE  -
|  1> ! RHF DLPNO-CCSD(T) cc-pVTZ RIJK cc-pVTZ/JK cc-pVTZ/C
|  2> ! KDIIS SOSCF TightSCF TightPNO
|  3>
|  4> %pal nprocs 8 end
|  5>
|  6> %maxcore 8000
|  7>
|  8> %scf maxiter 300
|  9>      shift shift 0.2 erroff 0.1 end
| 10> end
| 11>
| 12> * xyzfile 0 1 propanal_skew.xyz
| 13>
| 14>
| 15>                          ****END OF INPUT****

CARTESIAN COORDINATES (ANGSTROEM)
---------------------------------
  C      1.699690   -0.277680   -0.179650
  C      0.471420    0.586090    0.154960
  C     -0.783280   -0.242160    0.293780
  O     -1.825230   -0.031800   -0.292320
  H     -0.704300   -1.103740    0.996160
  H      0.298960    1.359760   -0.599170
  H      0.633290    1.087020    1.121410
  H      2.605610    0.334910   -0.200360
  H      1.848570   -1.067180    0.565570
  H      1.592720   -0.753840   -1.159590

 Total Charge           Charge          ....    0
 Multiplicity           Mult            ....    1
 Number of Electrons    NEL             ....   32
 Basis Dimension        Dim             ....  204

ORBITAL ENERGIES
----------------

  NO   OCC          E(Eh)            E(eV)
   0   2.0000     -20.555668      -559.3482
   1   2.0000     -11.332061      -308.3611
   2   2.0000     -11.246553      -306.0343
   3   2.0000     -11.239292      -305.8367
   4   2.0000      -1.387334       -37.7513
   5   2.0000      -1.065751       -29.0006
   6   2.0000      -0.904128       -24.6026
   7   2.0000      -0.792004       -21.5515
   8   2.0000      -0.668781       -18.1985
   9   2.0000      -0.637600       -17.3500
  10   2.0000      -0.614088       -16.7102
  11   2.0000      -0.562786       -15.3142
  12   2.0000      -0.541603       -14.7378
  13   2.0000      -0.516084       -14.0434
  14   2.0000      -0.491778       -13.3819
  15   2.0000      -0.418896       -11.3987
  16   0.0000       0.123237         3.3534
  17   0.0000       0.148374         4.0375
  18   0.0000       0.168383         4.5819
  19   0.0000       0.177745         4.8367
  20   0.0000       0.206018         5.6060

MULLIKEN ATOMIC CHARGES
-----------------------
   0 C :   -0.294811
   1 C :   -0.154253
   2 C :    0.206162
   3 O :   -0.346096
   4 H :    0.071052
   5 H :    0.116560
   6 H :    0.097112
   7 H :    0.109426
   8 H :    0.090965
   9 H :    0.103883
Sum of atomic charges:   -0.0000000

LOEWDIN ATOMIC CHARGES
----------------------
   0 C :    0.113507
   1 C :    0.039028
   2 C :   -0.139904
   3 O :    0.140761
   4 H :   -0.044778
   5 H :   -0.016512
   6 H :   -0.015164
   7 H :   -0.023793
   8 H :   -0.028109
   9 H :   -0.025037

  Mayer bond orders larger than 0.1
B(  0-C ,  1-C ) :   0.9445 B(  0-C ,  7-H ) :   0.9804 B(  0-C ,  8-H ) :   0.9784
B(  0-C ,  9-H ) :   0.9764 B(  1-C ,  2-C ) :   0.9252 B(  1-C ,  5-H ) :   0.9697
B(  1-C ,  6-H ) :   0.9660 B(  2-C ,  3-O ) :   2.0952 B(  2-C ,  4-H ) :   0.9610

E(0)                                       ...   -192.020744946
E(0)                                       ...   -192.020744946
E(CORR)(strong-pairs)                      ...     -0.772158815
E(CORR)(weak-pairs)                        ...     -0.000455177
E(CORR)(corrected)                         ...     -0.772613992
E(TOT)                                     ...   -192.793358938
E(CCSD(T))                                 ...   -192.823700258
FINAL SINGLE POINT ENERGY      -192.823700257612

DIPOLE MOMENT
-------------
                                X             Y             Z
Electronic contribution:     -5.25993       0.07789      -0.25350
Nuclear contribution   :      6.46314      -0.14857       0.74441
                        -----------------------------------------
Total Dipole Moment    :      1.20321      -0.07068       0.49091
                        -----------------------------------------
Magnitude (a.u.)       :      1.30142
Magnitude (Debye)      :      3.30795

Rotational constants in cm-1:     0.874044     0.142159     0.136862
Rotational constants in MHz : 26203.178096  4261.819984  4103.007644

                             ****ORCA TERMINATED NORMALLY****
TOTAL RUN TIME: 0 days 0 hours 1 minutes 44 seconds 199 msec
