                         Program Version 4.1.x  -  STABLE  -
|  1> ! RHF DLPNO-CCSD(T) cc-pVTZ RIJK cc-pVTZ/JK cc-pVTZ/C
|  2> ! KDIIS SOSCF TightSCF TightPNO
|  3>
|  4> %pal nprocs 8 end
|  5>
|  6> %maxcore 8000
|  7>
|  8> %scf maxiter 300
|  9>      shift shift 0.2 erroff 0.1 end
| 10> end
| 11>
| 12> * xyzfile 0 1 propanediamine_gGGg.xyz
| 13>
| 14>
| 15>                          ****END OF INPUT****

CARTESIAN COORDINATES (ANGSTROEM)
---------------------------------
  C      1.302650    0.495980    0.208150
  C     -0.014500    1.034700   -0.364190
  C     -1.287400    0.462130    0.272220
  N     -1.545880   -0.912080   -0.172790
  N      1.448670   -0.955700   -0.000820
  H      1.320580    0.671510    1.291460
  H      2.136450    1.077000   -0.221520
  H      1.508770   -1.170320   -0.993970
  H      2.302060   -1.299010    0.431820
  H     -2.140440    1.078940   -0.036260
  H     -1.204990    0.562970    1.370800
  H     -0.776170   -1.512060    0.117380
  H     -2.407210   -1.269160    0.231300
  H     -0.010830    2.124060   -0.225480
  H     -0.052300    0.853700   -1.447300

 Total Charge           Charge          ....    0
 Multiplicity           Mult            ....    1
 Number of Electrons    NEL             ....   42
 Basis Dimension        Dim             ....  290

ORBITAL ENERGIES
----------------

  NO   OCC          E(Eh)            E(eV)
   0   2.0000     -15.539702      -422.8568
   1   2.0000     -15.514282      -422.1651
   2   2.0000     -11.249379      -306.1112
   3   2.0000     -11.237943      -305.8000
   4   2.0000     -11.214787      -305.1699
   5   2.0000      -1.179732       -32.1021
   6   2.0000      -1.148729       -31.2585
   7   2.0000      -1.004908       -27.3449
   8   2.0000      -0.876243       -23.8438
   9   2.0000      -0.781302       -21.2603
  10   2.0000      -0.664272       -18.0758
  11   2.0000      -0.653009       -17.7693
  12   2.0000      -0.621671       -16.9165
  13   2.0000      -0.598043       -16.2736
  14   2.0000      -0.552636       -15.0380
  15   2.0000      -0.547324       -14.8934
  16   2.0000      -0.491452       -13.3731
  17   2.0000      -0.482477       -13.1289
  18   2.0000      -0.471060       -12.8182
  19   2.0000      -0.388708       -10.5773
  20   2.0000      -0.370359       -10.0780
  21   0.0000       0.138974         3.7817
  22   0.0000       0.162098         4.4109
  23   0.0000       0.173651         4.7253
  24   0.0000       0.176875         4.8130
  25   0.0000       0.205622         5.5953

MULLIKEN ATOMIC CHARGES
-----------------------
   0 C :   -0.062216
   1 C :   -0.188917
   2 C :   -0.036614
   3 N :   -0.402898
   4 N :   -0.391977
   5 H :    0.084426
   6 H :    0.081010
   7 H :    0.148924
   8 H :    0.141817
   9 H :    0.087459
  10 H :    0.056199
  11 H :    0.158262
  12 H :    0.135055
  13 H :    0.097111
  14 H :    0.092359
Sum of atomic charges:   -0.0000000

LOEWDIN ATOMIC CHARGES
----------------------
   0 C :   -0.013842
   1 C :    0.044396
   2 C :   -0.014769
   3 N :    0.308286
   4 N :    0.330269
   5 H :   -0.031316
   6 H :   -0.042143
   7 H :   -0.104882
   8 H :   -0.109305
   9 H :   -0.032175
  10 H :   -0.045601
  11 H :   -0.124595
  12 H :   -0.114857
  13 H :   -0.022543
  14 H :   -0.026921

  Mayer bond orders larger than 0.1
B(  0-C ,  1-C ) :   0.9569 B(  0-C ,  4-N ) :   0.9616 B(  0-C ,  5-H ) :   0.9818
B(  0-C ,  6-H ) :   0.9930 B(  1-C ,  2-C ) :   0.9503 B(  1-C , 13-H ) :   0.9910
B(  1-C , 14-H ) :   0.9771 B(  2-C ,  3-N ) :   0.9853 B(  2-C ,  9-H ) :   0.9888
B(  2-C , 10-H ) :   0.9826 B(  3-N , 11-H ) :   0.9609 B(  3-N , 12-H ) :   0.9922
B(  4-N ,  7-H ) :   0.9796 B(  4-N ,  8-H ) :   0.9878

E(0)                                       ...   -228.394501963
E(0)                                       ...   -228.394501963
E(CORR)(strong-pairs)                      ...     -1.010968209
E(CORR)(weak-pairs)                        ...     -0.000770465
E(CORR)(corrected)                         ...     -1.011738674
E(TOT)                                     ...   -229.406240637
E(CCSD(T))                                 ...   -229.444222951
FINAL SINGLE POINT ENERGY      -229.444222951394

DIPOLE MOMENT
-------------
                                X             Y             Z
Electronic contribution:     -0.17224      -1.00888      -0.26931
Nuclear contribution   :      0.71866       1.17760       0.55036
                        -----------------------------------------
Total Dipole Moment    :      0.54641       0.16872       0.28105
                        -----------------------------------------
Magnitude (a.u.)       :      0.63720
Magnitude (Debye)      :      1.61963

Rotational constants in cm-1:     0.245534     0.120290     0.089708
Rotational constants in MHz :  7360.920607  3606.201592  2689.384766

                             ****ORCA TERMINATED NORMALLY****
TOTAL RUN TIME: 0 days 0 hours 3 minutes 43 seconds 919 msec
