                         Program Version 4.1.x  -  STABLE  -
|  1> ! RHF DLPNO-CCSD(T) cc-pVTZ RIJK cc-pVTZ/JK cc-pVTZ/C
|  2> ! KDIIS SOSCF TightSCF TightPNO
|  3>
|  4> %pal nprocs 8 end
|  5>
|  6> %maxcore 8000
|  7>
|  8> %scf maxiter 300
|  9>      shift shift 0.2 erroff 0.1 end
| 10> end
| 11>
| 12> * xyzfile 0 1 propene_H_H_ecl.xyz
| 13>
| 14>
| 15>                          ****END OF INPUT****

CARTESIAN COORDINATES (ANGSTROEM)
---------------------------------
  C      1.227650   -0.164910    0.000000
  C     -0.133160    0.476660    0.000000
  C     -1.271320   -0.231170    0.000000
  H      1.358650   -0.800860   -0.905020
  H      2.033940    0.603910   -0.000010
  H      1.358630   -0.800850    0.905040
  H     -0.182190    1.579490   -0.000010
  H     -2.254230    0.267620    0.000000
  H     -1.253820   -1.332750   -0.000020

 Total Charge           Charge          ....    0
 Multiplicity           Mult            ....    1
 Number of Electrons    NEL             ....   24
 Basis Dimension        Dim             ....  174

ORBITAL ENERGIES
----------------

  NO   OCC          E(Eh)            E(eV)
   0   2.0000     -11.236142      -305.7510
   1   2.0000     -11.228096      -305.5320
   2   2.0000     -11.220898      -305.3362
   3   2.0000      -1.058958       -28.8157
   4   2.0000      -0.923438       -25.1280
   5   2.0000      -0.749367       -20.3913
   6   2.0000      -0.631222       -17.1764
   7   2.0000      -0.577932       -15.7263
   8   2.0000      -0.564315       -15.3558
   9   2.0000      -0.515650       -14.0315
  10   2.0000      -0.486298       -13.2328
  11   2.0000      -0.354767        -9.6537
  12   0.0000       0.147973         4.0265
  13   0.0000       0.148260         4.0344
  14   0.0000       0.172993         4.7074
  15   0.0000       0.184344         5.0163
  16   0.0000       0.226327         6.1587

MULLIKEN ATOMIC CHARGES
-----------------------
   0 C :   -0.250729
   1 C :   -0.120285
   2 C :   -0.333439
   3 H :    0.101664
   4 H :    0.091526
   5 H :    0.101661
   6 H :    0.149390
   7 H :    0.134053
   8 H :    0.126158
Sum of atomic charges:   -0.0000000

LOEWDIN ATOMIC CHARGES
----------------------
   0 C :    0.083848
   1 C :    0.005840
   2 C :    0.060969
   3 H :   -0.015853
   4 H :   -0.019386
   5 H :   -0.015849
   6 H :   -0.026305
   7 H :   -0.036480
   8 H :   -0.036785

  Mayer bond orders larger than 0.1
B(  0-C ,  1-C ) :   0.9339 B(  0-C ,  3-H ) :   0.9763 B(  0-C ,  4-H ) :   0.9921
B(  0-C ,  5-H ) :   0.9763 B(  1-C ,  2-C ) :   1.8833 B(  1-C ,  6-H ) :   0.9632
B(  2-C ,  7-H ) :   0.9765 B(  2-C ,  8-H ) :   0.9685

E(0)                                       ...   -117.109086697
E(0)                                       ...   -117.109086697
E(CORR)(strong-pairs)                      ...     -0.545534259
E(CORR)(weak-pairs)                        ...     -0.000271845
E(CORR)(corrected)                         ...     -0.545806104
E(TOT)                                     ...   -117.654892801
E(CCSD(T))                                 ...   -117.676944580
FINAL SINGLE POINT ENERGY      -117.676944579901

DIPOLE MOMENT
-------------
                                X             Y             Z
Electronic contribution:     -0.99503       0.53033       0.00001
Nuclear contribution   :      1.13644      -0.51783      -0.00002
                        -----------------------------------------
Total Dipole Moment    :      0.14141       0.01250      -0.00001
                        -----------------------------------------
Magnitude (a.u.)       :      0.14196
Magnitude (Debye)      :      0.36084

Rotational constants in cm-1:     1.481276     0.312265     0.271621
Rotational constants in MHz : 44407.551298  9361.458032  8142.996800

                             ****ORCA TERMINATED NORMALLY****
TOTAL RUN TIME: 0 days 0 hours 1 minutes 19 seconds 240 msec
