                         Program Version 4.1.x  -  STABLE  -
|  1> ! RHF DLPNO-CCSD(T) cc-pVTZ RIJK cc-pVTZ/JK cc-pVTZ/C
|  2> ! KDIIS SOSCF TightSCF TightPNO
|  3>
|  4> %pal nprocs 8 end
|  5>
|  6> %maxcore 8000
|  7>
|  8> %scf maxiter 300
|  9>      shift shift 0.2 erroff 0.1 end
| 10> end
| 11>
| 12> * xyzfile 0 1 propen_3_ol_skew_g_plus.xyz
| 13>
| 14>
| 15>                          ****END OF INPUT****

CARTESIAN COORDINATES (ANGSTROEM)
---------------------------------
  C     -1.808020    0.030620   -0.256030
  C     -0.665130   -0.297940    0.354410
  C      0.602950    0.503920    0.261040
  O      1.700350   -0.271290   -0.235810
  H     -2.703350   -0.577000   -0.161240
  H     -1.888830    0.928520   -0.865700
  H     -0.606210   -1.204920    0.955970
  H      0.441590    1.400290   -0.355720
  H      0.923960    0.834840    1.254680
  H      1.451260   -0.631020   -1.098010

 Total Charge           Charge          ....    0
 Multiplicity           Mult            ....    1
 Number of Electrons    NEL             ....   32
 Basis Dimension        Dim             ....  204

ORBITAL ENERGIES
----------------

  NO   OCC          E(Eh)            E(eV)
   0   2.0000     -20.554728      -559.3226
   1   2.0000     -11.282511      -307.0127
   2   2.0000     -11.239816      -305.8509
   3   2.0000     -11.234654      -305.7105
   4   2.0000      -1.353898       -36.8414
   5   2.0000      -1.062961       -28.9246
   6   2.0000      -0.919426       -25.0188
   7   2.0000      -0.775321       -21.0976
   8   2.0000      -0.696544       -18.9539
   9   2.0000      -0.621109       -16.9012
  10   2.0000      -0.612864       -16.6769
  11   2.0000      -0.599889       -16.3238
  12   2.0000      -0.530826       -14.4445
  13   2.0000      -0.493305       -13.4235
  14   2.0000      -0.451396       -12.2831
  15   2.0000      -0.375738       -10.2243
  16   0.0000       0.138324         3.7640
  17   0.0000       0.152422         4.1476
  18   0.0000       0.171713         4.6726
  19   0.0000       0.180964         4.9243
  20   0.0000       0.185796         5.0558

MULLIKEN ATOMIC CHARGES
-----------------------
   0 C :   -0.332891
   1 C :   -0.165731
   2 C :    0.105606
   3 O :   -0.419014
   4 H :    0.146528
   5 H :    0.139485
   6 H :    0.160767
   7 H :    0.062551
   8 H :    0.082114
   9 H :    0.220585
Sum of atomic charges:    0.0000000

LOEWDIN ATOMIC CHARGES
----------------------
   0 C :    0.084083
   1 C :    0.010836
   2 C :   -0.047812
   3 O :    0.305612
   4 H :   -0.037564
   5 H :   -0.039520
   6 H :   -0.027779
   7 H :   -0.032873
   8 H :   -0.023619
   9 H :   -0.191365

  Mayer bond orders larger than 0.1
B(  0-C ,  1-C ) :   1.8560 B(  0-C ,  4-H ) :   0.9726 B(  0-C ,  5-H ) :   0.9639
B(  1-C ,  2-C ) :   0.9687 B(  1-C ,  6-H ) :   0.9546 B(  2-C ,  3-O ) :   0.9780
B(  2-C ,  7-H ) :   0.9841 B(  2-C ,  8-H ) :   0.9734 B(  3-O ,  9-H ) :   0.9855

E(0)                                       ...   -191.996591596
E(0)                                       ...   -191.996591596
E(CORR)(strong-pairs)                      ...     -0.773650165
E(CORR)(weak-pairs)                        ...     -0.000461047
E(CORR)(corrected)                         ...     -0.774111212
E(TOT)                                     ...   -192.770702808
E(CCSD(T))                                 ...   -192.801026275
FINAL SINGLE POINT ENERGY      -192.801026274695

DIPOLE MOMENT
-------------
                                X             Y             Z
Electronic contribution:      1.84492      -0.68655       0.00353
Nuclear contribution   :     -2.43661       0.77237      -0.28325
                        -----------------------------------------
Total Dipole Moment    :     -0.59169       0.08583      -0.27972
                        -----------------------------------------
Magnitude (a.u.)       :      0.66008
Magnitude (Debye)      :      1.67779

Rotational constants in cm-1:     0.857386     0.142719     0.139531
Rotational constants in MHz : 25703.796911  4278.616173  4183.032378

                             ****ORCA TERMINATED NORMALLY****
TOTAL RUN TIME: 0 days 0 hours 1 minutes 59 seconds 375 msec
