                         Program Version 4.1.x  -  STABLE  -
|  1> ! RHF DLPNO-CCSD(T) cc-pVTZ RIJK cc-pVTZ/JK cc-pVTZ/C
|  2> ! KDIIS SOSCF TightSCF TightPNO
|  3>
|  4> %pal nprocs 8 end
|  5>
|  6> %maxcore 8000
|  7>
|  8> %scf maxiter 300
|  9>      shift shift 0.2 erroff 0.1 end
| 10> end
| 11>
| 12> * xyzfile 0 1 propylamine_a.xyz
| 13>
| 14>
| 15>                          ****END OF INPUT****

CARTESIAN COORDINATES (ANGSTROEM)
---------------------------------
  C      1.930490   -0.132920    0.023370
  C      0.545930    0.518630   -0.060010
  C     -0.597550   -0.494240    0.029990
  N     -1.899960    0.174320   -0.086530
  H     -2.061760    0.793450    0.704200
  H     -0.485720   -1.080710    0.959790
  H     -0.516140   -1.205350   -0.801830
  H      0.441930    1.077020   -0.997960
  H      0.437510    1.253160    0.751280
  H     -2.660050   -0.499820   -0.101750
  H      2.725970    0.617050   -0.038850
  H      2.061370   -0.677630    0.966050
  H      2.083350   -0.846210   -0.795350

 Total Charge           Charge          ....    0
 Multiplicity           Mult            ....    1
 Number of Electrons    NEL             ....   34
 Basis Dimension        Dim             ....  246

ORBITAL ENERGIES
----------------

  NO   OCC          E(Eh)            E(eV)
   0   2.0000     -15.532565      -422.6626
   1   2.0000     -11.244537      -305.9794
   2   2.0000     -11.216037      -305.2039
   3   2.0000     -11.212752      -305.1145
   4   2.0000      -1.169262       -31.8172
   5   2.0000      -1.031398       -28.0658
   6   2.0000      -0.895066       -24.3560
   7   2.0000      -0.795544       -21.6478
   8   2.0000      -0.656225       -17.8568
   9   2.0000      -0.625212       -17.0129
  10   2.0000      -0.599108       -16.3025
  11   2.0000      -0.562487       -15.3061
  12   2.0000      -0.527668       -14.3586
  13   2.0000      -0.491308       -13.3692
  14   2.0000      -0.475511       -12.9393
  15   2.0000      -0.467231       -12.7140
  16   2.0000      -0.384794       -10.4708
  17   0.0000       0.141575         3.8524
  18   0.0000       0.154070         4.1925
  19   0.0000       0.174463         4.7474
  20   0.0000       0.189843         5.1659
  21   0.0000       0.210755         5.7349

MULLIKEN ATOMIC CHARGES
-----------------------
   0 C :   -0.297427
   1 C :   -0.150230
   2 C :   -0.039086
   3 N :   -0.383194
   4 H :    0.138820
   5 H :    0.058738
   6 H :    0.082384
   7 H :    0.098739
   8 H :    0.076597
   9 H :    0.140972
  10 H :    0.102021
  11 H :    0.083949
  12 H :    0.087717
Sum of atomic charges:    0.0000000

LOEWDIN ATOMIC CHARGES
----------------------
   0 C :    0.104411
   1 C :    0.041348
   2 C :   -0.017569
   3 N :    0.314370
   4 H :   -0.108906
   5 H :   -0.046002
   6 H :   -0.031072
   7 H :   -0.025674
   8 H :   -0.031017
   9 H :   -0.109392
  10 H :   -0.029025
  11 H :   -0.031437
  12 H :   -0.030036

  Mayer bond orders larger than 0.1
B(  0-C ,  1-C ) :   0.9529 B(  0-C , 10-H ) :   0.9869 B(  0-C , 11-H ) :   0.9802
B(  0-C , 12-H ) :   0.9820 B(  1-C ,  2-C ) :   0.9597 B(  1-C ,  7-H ) :   0.9778
B(  1-C ,  8-H ) :   0.9837 B(  2-C ,  3-N ) :   0.9837 B(  2-C ,  5-H ) :   0.9828
B(  2-C ,  6-H ) :   0.9792 B(  3-N ,  4-H ) :   0.9892 B(  3-N ,  9-H ) :   0.9898

E(0)                                       ...   -173.351071731
E(0)                                       ...   -173.351071731
E(CORR)(strong-pairs)                      ...     -0.797140713
E(CORR)(weak-pairs)                        ...     -0.000544028
E(CORR)(corrected)                         ...     -0.797684741
E(TOT)                                     ...   -174.148756472
E(CCSD(T))                                 ...   -174.177792260
FINAL SINGLE POINT ENERGY      -174.177792260337

DIPOLE MOMENT
-------------
                                X             Y             Z
Electronic contribution:     -2.20795       0.37257      -0.28410
Nuclear contribution   :      2.17701      -0.61359       0.69683
                        -----------------------------------------
Total Dipole Moment    :     -0.03094      -0.24102       0.41273
                        -----------------------------------------
Magnitude (a.u.)       :      0.47895
Magnitude (Debye)      :      1.21741

Rotational constants in cm-1:     0.841467     0.123074     0.115258
Rotational constants in MHz : 25226.558443  3689.668810  3455.350376

                             ****ORCA TERMINATED NORMALLY****
TOTAL RUN TIME: 0 days 0 hours 2 minutes 33 seconds 282 msec
