                         Program Version 4.1.x  -  STABLE  -
|  1> ! RHF DLPNO-CCSD(T) cc-pVTZ RIJK cc-pVTZ/JK cc-pVTZ/C
|  2> ! KDIIS SOSCF TightSCF TightPNO
|  3>
|  4> %pal nprocs 8 end
|  5>
|  6> %maxcore 8000
|  7>
|  8> %scf maxiter 300
|  9>      shift shift 0.2 erroff 0.1 end
| 10> end
| 11>
| 12> * xyzfile 0 1 propanal_eclipsed.xyz
| 13>
| 14>
| 15>                          ****END OF INPUT****

CARTESIAN COORDINATES (ANGSTROEM)
---------------------------------
  C     -1.451470   -0.502480   -0.000010
  C     -0.546780    0.728340    0.000030
  C      0.932300    0.424670   -0.000020
  O      1.414240   -0.689570    0.000020
  H      1.595730    1.318490   -0.000100
  H     -0.737540    1.373760    0.871410
  H     -0.737590    1.373850   -0.871280
  H     -2.504430   -0.205460   -0.000010
  H     -1.267190   -1.123590   -0.881040
  H     -1.267180   -1.123650    0.880970

 Total Charge           Charge          ....    0
 Multiplicity           Mult            ....    1
 Number of Electrons    NEL             ....   32
 Basis Dimension        Dim             ....  204

ORBITAL ENERGIES
----------------

  NO   OCC          E(Eh)            E(eV)
   0   2.0000     -20.555589      -559.3460
   1   2.0000     -11.332647      -308.3770
   2   2.0000     -11.247876      -306.0703
   3   2.0000     -11.224444      -305.4327
   4   2.0000      -1.388015       -37.7698
   5   2.0000      -1.059418       -28.8282
   6   2.0000      -0.910440       -24.7743
   7   2.0000      -0.771952       -21.0059
   8   2.0000      -0.677901       -18.4466
   9   2.0000      -0.631546       -17.1853
  10   2.0000      -0.626126       -17.0378
  11   2.0000      -0.541742       -14.7416
  12   2.0000      -0.527378       -14.3507
  13   2.0000      -0.519608       -14.1393
  14   2.0000      -0.489516       -13.3204
  15   2.0000      -0.420742       -11.4490
  16   0.0000       0.134360         3.6561
  17   0.0000       0.143493         3.9047
  18   0.0000       0.162424         4.4198
  19   0.0000       0.187508         5.1023
  20   0.0000       0.197037         5.3616

MULLIKEN ATOMIC CHARGES
-----------------------
   0 C :   -0.271640
   1 C :   -0.160505
   2 C :    0.175811
   3 O :   -0.349049
   4 H :    0.096346
   5 H :    0.101297
   6 H :    0.101292
   7 H :    0.098984
   8 H :    0.103730
   9 H :    0.103735
Sum of atomic charges:   -0.0000000

LOEWDIN ATOMIC CHARGES
----------------------
   0 C :    0.114812
   1 C :    0.027288
   2 C :   -0.139349
   3 O :    0.140137
   4 H :   -0.042612
   5 H :   -0.013321
   6 H :   -0.013319
   7 H :   -0.028446
   8 H :   -0.022594
   9 H :   -0.022596

  Mayer bond orders larger than 0.1
B(  0-C ,  1-C ) :   0.9505 B(  0-C ,  7-H ) :   0.9845 B(  0-C ,  8-H ) :   0.9773
B(  0-C ,  9-H ) :   0.9773 B(  1-C ,  2-C ) :   0.9181 B(  1-C ,  5-H ) :   0.9657
B(  1-C ,  6-H ) :   0.9657 B(  2-C ,  3-O ) :   2.0994 B(  2-C ,  4-H ) :   0.9767

E(0)                                       ...   -192.022285307
E(0)                                       ...   -192.022285307
E(CORR)(strong-pairs)                      ...     -0.772397017
E(CORR)(weak-pairs)                        ...     -0.000460638
E(CORR)(corrected)                         ...     -0.772857656
E(TOT)                                     ...   -192.795142962
E(CCSD(T))                                 ...   -192.825506149
FINAL SINGLE POINT ENERGY      -192.825506149384

DIPOLE MOMENT
-------------
                                X             Y             Z
Electronic contribution:      4.38976      -0.65317       0.00005
Nuclear contribution   :     -5.06605       1.65822      -0.00007
                        -----------------------------------------
Total Dipole Moment    :     -0.67629       1.00504      -0.00002
                        -----------------------------------------
Magnitude (a.u.)       :      1.21139
Magnitude (Debye)      :      3.07912

Rotational constants in cm-1:     0.558435     0.192808     0.151286
Rotational constants in MHz : 16741.467958  5780.234919  4535.445630

                             ****ORCA TERMINATED NORMALLY****
TOTAL RUN TIME: 0 days 0 hours 1 minutes 52 seconds 972 msec
