                         Program Version 4.1.x  -  STABLE  -
|  1> ! RHF DLPNO-CCSD(T) cc-pVTZ RIJK cc-pVTZ/JK cc-pVTZ/C
|  2> ! KDIIS SOSCF TightSCF TightPNO
|  3>
|  4> %pal nprocs 8 end
|  5>
|  6> %maxcore 8000
|  7>
|  8> %scf maxiter 300
|  9>      shift shift 0.2 erroff 0.1 end
| 10> end
| 11>
| 12> * xyzfile 0 1 propanediamine_tTTt.xyz
| 13>
| 14>
| 15>                          ****END OF INPUT****

CARTESIAN COORDINATES (ANGSTROEM)
---------------------------------
  C      1.284300   -0.502610   -0.000010
  C     -0.000010    0.344400   -0.000010
  C     -1.284290   -0.502620    0.000000
  N     -2.552080    0.234020    0.000010
  N      2.552060    0.234020    0.000000
  H      1.286570   -1.162490   -0.877040
  H      1.286580   -1.162460    0.877040
  H      2.626150    0.832850   -0.818530
  H      2.626220    0.832710    0.818620
  H     -1.286590   -1.162470    0.877050
  H     -1.286590   -1.162490   -0.877030
  H     -2.626120    0.832790    0.818580
  H     -2.626120    0.832810   -0.818560
  H     -0.000000    1.003710    0.881130
  H      0.000000    1.003700   -0.881160

 Total Charge           Charge          ....    0
 Multiplicity           Mult            ....    1
 Number of Electrons    NEL             ....   42
 Basis Dimension        Dim             ....  290

ORBITAL ENERGIES
----------------

  NO   OCC          E(Eh)            E(eV)
   0   2.0000     -15.535940      -422.7544
   1   2.0000     -15.535938      -422.7544
   2   2.0000     -11.248712      -306.0930
   3   2.0000     -11.248708      -306.0929
   4   2.0000     -11.219673      -305.3028
   5   2.0000      -1.178556       -32.0701
   6   2.0000      -1.166487       -31.7417
   7   2.0000      -1.009296       -27.4643
   8   2.0000      -0.872912       -23.7531
   9   2.0000      -0.807195       -21.9649
  10   2.0000      -0.682569       -18.5737
  11   2.0000      -0.659406       -17.9433
  12   2.0000      -0.606169       -16.4947
  13   2.0000      -0.580945       -15.8083
  14   2.0000      -0.576537       -15.6884
  15   2.0000      -0.549873       -14.9628
  16   2.0000      -0.505357       -13.7515
  17   2.0000      -0.497788       -13.5455
  18   2.0000      -0.471364       -12.8265
  19   2.0000      -0.410100       -11.1594
  20   2.0000      -0.368264       -10.0210
  21   0.0000       0.135785         3.6949
  22   0.0000       0.150382         4.0921
  23   0.0000       0.161908         4.4057
  24   0.0000       0.163081         4.4377
  25   0.0000       0.206793         5.6271

MULLIKEN ATOMIC CHARGES
-----------------------
   0 C :   -0.063627
   1 C :   -0.168382
   2 C :   -0.063636
   3 N :   -0.379193
   4 N :   -0.379204
   5 H :    0.091768
   6 H :    0.091766
   7 H :    0.136913
   8 H :    0.136915
   9 H :    0.091768
  10 H :    0.091771
  11 H :    0.136908
  12 H :    0.136907
  13 H :    0.069665
  14 H :    0.069664
Sum of atomic charges:    0.0000000

LOEWDIN ATOMIC CHARGES
----------------------
   0 C :   -0.018363
   1 C :    0.028263
   2 C :   -0.018350
   3 N :    0.317789
   4 N :    0.317802
   5 H :   -0.029273
   6 H :   -0.029274
   7 H :   -0.109535
   8 H :   -0.109539
   9 H :   -0.029274
  10 H :   -0.029276
  11 H :   -0.109545
  12 H :   -0.109534
  13 H :   -0.035946
  14 H :   -0.035946

  Mayer bond orders larger than 0.1
B(  0-C ,  1-C ) :   0.9654 B(  0-C ,  4-N ) :   0.9898 B(  0-C ,  5-H ) :   0.9848
B(  0-C ,  6-H ) :   0.9848 B(  1-C ,  2-C ) :   0.9654 B(  1-C , 13-H ) :   0.9739
B(  1-C , 14-H ) :   0.9739 B(  2-C ,  3-N ) :   0.9898 B(  2-C ,  9-H ) :   0.9848
B(  2-C , 10-H ) :   0.9848 B(  3-N , 11-H ) :   0.9970 B(  3-N , 12-H ) :   0.9970
B(  4-N ,  7-H ) :   0.9970 B(  4-N ,  8-H ) :   0.9970

E(0)                                       ...   -228.394093529
E(0)                                       ...   -228.394093529
E(CORR)(strong-pairs)                      ...     -1.009158076
E(CORR)(weak-pairs)                        ...     -0.000750859
E(CORR)(corrected)                         ...     -1.009908936
E(TOT)                                     ...   -229.404002465
E(CCSD(T))                                 ...   -229.441774785
FINAL SINGLE POINT ENERGY      -229.441774784943

DIPOLE MOMENT
-------------
                                X             Y             Z
Electronic contribution:      0.00001      -0.03670      -0.00004
Nuclear contribution   :      0.00012       0.73574       0.00009
                        -----------------------------------------
Total Dipole Moment    :      0.00012       0.69904       0.00005
                        -----------------------------------------
Magnitude (a.u.)       :      0.69904
Magnitude (Debye)      :      1.77681

Rotational constants in cm-1:     0.632195     0.063872     0.061110
Rotational constants in MHz : 18952.718730  1914.831076  1832.030384

                             ****ORCA TERMINATED NORMALLY****
TOTAL RUN TIME: 0 days 0 hours 3 minutes 37 seconds 68 msec
