                         Program Version 4.1.x  -  STABLE  -
|  1> ! RHF DLPNO-CCSD(T) cc-pVTZ RIJK cc-pVTZ/JK cc-pVTZ/C
|  2> ! KDIIS SOSCF TightSCF TightPNO
|  3>
|  4> %pal nprocs 8 end
|  5>
|  6> %maxcore 8000
|  7>
|  8> %scf maxiter 300
|  9>      shift shift 0.2 erroff 0.1 end
| 10> end
| 11>
| 12> * xyzfile 0 1 pyrrolidine_ax.xyz
| 13>
| 14>
| 15>                          ****END OF INPUT****

CARTESIAN COORDINATES (ANGSTROEM)
---------------------------------
  C      0.778210    1.031020   -0.071070
  C      1.160920   -0.452440    0.191130
  N      0.000150   -1.270750   -0.193800
  C     -1.160880   -0.452680    0.190940
  C     -0.778370    1.030940   -0.070820
  H      0.000250   -1.398660   -1.204190
  H     -1.348730   -0.611730    1.260660
  H     -2.054990   -0.775610   -0.350400
  H      2.055260   -0.775330   -0.349840
  H      1.348440   -0.611220    1.260960
  H     -1.195650    1.699370    0.689520
  H     -1.166220    1.363960   -1.039750
  H      1.165680    1.363620   -1.040300
  H      1.195670    1.699830    0.688830

 Total Charge           Charge          ....    0
 Multiplicity           Mult            ....    1
 Number of Electrons    NEL             ....   40
 Basis Dimension        Dim             ....  276

ORBITAL ENERGIES
----------------

  NO   OCC          E(Eh)            E(eV)
   0   2.0000     -15.535106      -422.7317
   1   2.0000     -11.242604      -305.9268
   2   2.0000     -11.242584      -305.9263
   3   2.0000     -11.218470      -305.2701
   4   2.0000     -11.217923      -305.2552
   5   2.0000      -1.210964       -32.9520
   6   2.0000      -1.015756       -27.6401
   7   2.0000      -0.967107       -26.3163
   8   2.0000      -0.811947       -22.0942
   9   2.0000      -0.783328       -21.3154
  10   2.0000      -0.674088       -18.3429
  11   2.0000      -0.634994       -17.2791
  12   2.0000      -0.586056       -15.9474
  13   2.0000      -0.582534       -15.8516
  14   2.0000      -0.509197       -13.8560
  15   2.0000      -0.492840       -13.4109
  16   2.0000      -0.476557       -12.9678
  17   2.0000      -0.474148       -12.9022
  18   2.0000      -0.456667       -12.4266
  19   2.0000      -0.371228       -10.1016
  20   0.0000       0.133470         3.6319
  21   0.0000       0.161270         4.3884
  22   0.0000       0.173885         4.7317
  23   0.0000       0.184272         5.0143
  24   0.0000       0.211178         5.7464

MULLIKEN ATOMIC CHARGES
-----------------------
   0 C :   -0.211741
   1 C :   -0.085420
   2 N :   -0.266859
   3 C :   -0.085439
   4 C :   -0.211755
   5 H :    0.100968
   6 H :    0.083163
   7 H :    0.100035
   8 H :    0.100042
   9 H :    0.083152
  10 H :    0.102353
  11 H :    0.094579
  12 H :    0.094563
  13 H :    0.102359
Sum of atomic charges:   -0.0000000

LOEWDIN ATOMIC CHARGES
----------------------
   0 C :    0.061041
   1 C :   -0.006607
   2 N :    0.282006
   3 C :   -0.006577
   4 C :    0.061052
   5 H :   -0.115615
   6 H :   -0.032490
   7 H :   -0.035279
   8 H :   -0.035278
   9 H :   -0.032479
  10 H :   -0.034196
  11 H :   -0.035691
  12 H :   -0.035688
  13 H :   -0.034198

  Mayer bond orders larger than 0.1
B(  0-C ,  1-C ) :   0.9395 B(  0-C ,  4-C ) :   0.9344 B(  0-C , 12-H ) :   0.9910
B(  0-C , 13-H ) :   0.9889 B(  1-C ,  2-N ) :   0.9934 B(  1-C ,  8-H ) :   0.9952
B(  1-C ,  9-H ) :   0.9855 B(  2-N ,  3-C ) :   0.9934 B(  2-N ,  5-H ) :   0.9996
B(  3-C ,  4-C ) :   0.9395 B(  3-C ,  6-H ) :   0.9855 B(  3-C ,  7-H ) :   0.9952
B(  4-C , 10-H ) :   0.9889 B(  4-C , 11-H ) :   0.9910

E(0)                                       ...   -211.218621703
E(0)                                       ...   -211.218621703
E(CORR)(strong-pairs)                      ...     -0.945115385
E(CORR)(weak-pairs)                        ...     -0.000823068
E(CORR)(corrected)                         ...     -0.945938454
E(TOT)                                     ...   -212.164560157
E(CCSD(T))                                 ...   -212.202326302
FINAL SINGLE POINT ENERGY      -212.202326301668

DIPOLE MOMENT
-------------
                                X             Y             Z
Electronic contribution:      0.00030      -1.61047      -0.17835
Nuclear contribution   :     -0.00031       2.05625      -0.09046
                        -----------------------------------------
Total Dipole Moment    :     -0.00002       0.44579      -0.26881
                        -----------------------------------------
Magnitude (a.u.)       :      0.52056
Magnitude (Debye)      :      1.32315

Rotational constants in cm-1:     0.226875     0.221503     0.128429
Rotational constants in MHz :  6801.551082  6640.494451  3850.214098

                             ****ORCA TERMINATED NORMALLY****
TOTAL RUN TIME: 0 days 0 hours 4 minutes 4 seconds 153 msec
