                         Program Version 4.1.x  -  STABLE  -
|  1> ! RHF DLPNO-CCSD(T) cc-pVTZ RIJK cc-pVTZ/JK cc-pVTZ/C
|  2> ! KDIIS SOSCF TightSCF TightPNO
|  3>
|  4> %pal nprocs 8 end
|  5>
|  6> %maxcore 8000
|  7>
|  8> %scf maxiter 300
|  9>      shift shift 0.2 erroff 0.1 end
| 10> end
| 11>
| 12> * xyzfile 0 1 pyrrolidine_eq.xyz
| 13>
| 14>
| 15>                          ****END OF INPUT****

CARTESIAN COORDINATES (ANGSTROEM)
---------------------------------
  C      0.778870    1.030120   -0.056940
  C      1.165100   -0.447190    0.170590
  N      0.000490   -1.171850   -0.349270
  C     -1.164700   -0.448170    0.170670
  C     -0.779770    1.029440   -0.057040
  H      0.000920   -2.154510   -0.090490
  H     -1.328160   -0.629510    1.249930
  H     -2.074720   -0.742750   -0.361790
  H      2.075320   -0.740950   -0.362000
  H      1.328860   -0.628470    1.249810
  H     -1.199490    1.677470    0.718210
  H     -1.162320    1.378420   -1.020560
  H      1.161220    1.379630   -1.020350
  H      1.197910    1.678400    0.718470

 Total Charge           Charge          ....    0
 Multiplicity           Mult            ....    1
 Number of Electrons    NEL             ....   40
 Basis Dimension        Dim             ....  276

ORBITAL ENERGIES
----------------

  NO   OCC          E(Eh)            E(eV)
   0   2.0000     -15.533390      -422.6850
   1   2.0000     -11.242541      -305.9251
   2   2.0000     -11.242521      -305.9245
   3   2.0000     -11.217042      -305.2312
   4   2.0000     -11.216501      -305.2165
   5   2.0000      -1.210817       -32.9480
   6   2.0000      -1.016104       -27.6496
   7   2.0000      -0.967951       -26.3393
   8   2.0000      -0.802485       -21.8367
   9   2.0000      -0.779068       -21.1995
  10   2.0000      -0.682556       -18.5733
  11   2.0000      -0.651908       -17.7393
  12   2.0000      -0.584450       -15.9037
  13   2.0000      -0.552612       -15.0373
  14   2.0000      -0.509804       -13.8725
  15   2.0000      -0.508677       -13.8418
  16   2.0000      -0.477169       -12.9844
  17   2.0000      -0.469263       -12.7693
  18   2.0000      -0.454280       -12.3616
  19   2.0000      -0.364631        -9.9221
  20   0.0000       0.137619         3.7448
  21   0.0000       0.169099         4.6014
  22   0.0000       0.177104         4.8193
  23   0.0000       0.179399         4.8817
  24   0.0000       0.208220         5.6659

MULLIKEN ATOMIC CHARGES
-----------------------
   0 C :   -0.191505
   1 C :   -0.078952
   2 N :   -0.289049
   3 C :   -0.078946
   4 C :   -0.191501
   5 H :    0.119753
   6 H :    0.063225
   7 H :    0.094598
   8 H :    0.094589
   9 H :    0.063232
  10 H :    0.098348
  11 H :    0.098930
  12 H :    0.098933
  13 H :    0.098345
Sum of atomic charges:   -0.0000000

LOEWDIN ATOMIC CHARGES
----------------------
   0 C :    0.070424
   1 C :   -0.008032
   2 N :    0.288366
   3 C :   -0.008031
   4 C :    0.070421
   5 H :   -0.118183
   6 H :   -0.046263
   7 H :   -0.035843
   8 H :   -0.035840
   9 H :   -0.046266
  10 H :   -0.034561
  11 H :   -0.030815
  12 H :   -0.030817
  13 H :   -0.034560

  Mayer bond orders larger than 0.1
B(  0-C ,  1-C ) :   0.9486 B(  0-C ,  4-C ) :   0.9339 B(  0-C , 12-H ) :   0.9920
B(  0-C , 13-H ) :   0.9938 B(  1-C ,  2-N ) :   0.9799 B(  1-C ,  8-H ) :   0.9901
B(  1-C ,  9-H ) :   0.9859 B(  2-N ,  3-C ) :   0.9798 B(  2-N ,  5-H ) :   0.9919
B(  3-C ,  4-C ) :   0.9486 B(  3-C ,  6-H ) :   0.9859 B(  3-C ,  7-H ) :   0.9901
B(  4-C , 10-H ) :   0.9938 B(  4-C , 11-H ) :   0.9920

E(0)                                       ...   -211.219749560
E(0)                                       ...   -211.219749560
E(CORR)(strong-pairs)                      ...     -0.944227845
E(CORR)(weak-pairs)                        ...     -0.000824026
E(CORR)(corrected)                         ...     -0.945051871
E(TOT)                                     ...   -212.164801431
E(CCSD(T))                                 ...   -212.202308924
FINAL SINGLE POINT ENERGY      -212.202308924103

DIPOLE MOMENT
-------------
                                X             Y             Z
Electronic contribution:      0.00049      -1.30719      -0.75528
Nuclear contribution   :     -0.00048       1.27895       1.13987
                        -----------------------------------------
Total Dipole Moment    :      0.00001      -0.02823       0.38459
                        -----------------------------------------
Magnitude (a.u.)       :      0.38562
Magnitude (Debye)      :      0.98018

Rotational constants in cm-1:     0.227657     0.225883     0.129011
Rotational constants in MHz :  6824.985523  6771.789445  3867.647359

                             ****ORCA TERMINATED NORMALLY****
TOTAL RUN TIME: 0 days 0 hours 3 minutes 51 seconds 110 msec
