                         Program Version 4.1.x  -  STABLE  -
|  1> ! RHF DLPNO-CCSD(T) cc-pVTZ RIJK cc-pVTZ/JK cc-pVTZ/C
|  2> ! KDIIS SOSCF TightSCF TightPNO
|  3>
|  4> %pal nprocs 8 end
|  5>
|  6> %maxcore 8000
|  7>
|  8> %scf maxiter 300
|  9>      shift shift 0.2 erroff 0.1 end
| 10> end
| 11>
| 12> * xyzfile 1 1 s_methylthianium_eq.xyz
| 13>
| 14>
| 15>                          ****END OF INPUT****

CARTESIAN COORDINATES (ANGSTROEM)
---------------------------------
  C     -1.431420   -1.284200   -0.163830
  C     -2.088910   -0.000020    0.367550
  C     -1.431470    1.284180   -0.163830
  C      0.051950    1.408710    0.206950
  S      0.989470    0.000010   -0.528480
  C      0.051960   -1.408700    0.206940
  C      2.561660   -0.000000    0.392120
  H     -1.548060    1.354040   -1.252250
  H     -1.931710    2.163720    0.256220
  H      0.213240    1.378180    1.289370
  H      0.509640    2.312530   -0.203520
  H     -3.145280   -0.000040    0.083550
  H     -2.063390   -0.000030    1.465310
  H      0.213240   -1.378180    1.289350
  H     -1.931640   -2.163750    0.256220
  H      0.509650   -2.312510   -0.203530
  H     -1.548000   -1.354050   -1.252250
  H      2.375240   -0.000030    1.467570
  H      3.116450   -0.891280    0.092100
  H      3.116440    0.891300    0.092140

 Total Charge           Charge          ....    1
 Multiplicity           Mult            ....    1
 Number of Electrons    NEL             ....   64
 Basis Dimension        Dim             ....  396

ORBITAL ENERGIES
----------------

  NO   OCC          E(Eh)            E(eV)
   0   2.0000     -92.218326     -2509.3882
   1   2.0000     -11.448113      -311.5190
   2   2.0000     -11.448104      -311.5187
   3   2.0000     -11.446082      -311.4637
   4   2.0000     -11.392015      -309.9925
   5   2.0000     -11.392011      -309.9924
   6   2.0000     -11.377104      -309.5867
   7   2.0000      -9.215584      -250.7688
   8   2.0000      -6.896458      -187.6622
   9   2.0000      -6.896304      -187.6580
  10   2.0000      -6.895335      -187.6316
  11   2.0000      -1.325572       -36.0706
  12   2.0000      -1.226929       -33.3864
  13   2.0000      -1.199567       -32.6419
  14   2.0000      -1.126610       -30.6566
  15   2.0000      -1.020984       -27.7824
  16   2.0000      -1.014090       -27.5948
  17   2.0000      -0.934047       -25.4167
  18   2.0000      -0.827508       -22.5176
  19   2.0000      -0.801188       -21.8014
  20   2.0000      -0.791692       -21.5430
  21   2.0000      -0.786774       -21.4092
  22   2.0000      -0.775291       -21.0967
  23   2.0000      -0.746257       -20.3067
  24   2.0000      -0.725207       -19.7339
  25   2.0000      -0.700396       -19.0587
  26   2.0000      -0.696562       -18.9544
  27   2.0000      -0.675320       -18.3764
  28   2.0000      -0.632654       -17.2154
  29   2.0000      -0.627226       -17.0677
  30   2.0000      -0.612909       -16.6781
  31   2.0000      -0.608924       -16.5697
  32   0.0000      -0.025517        -0.6943
  33   0.0000      -0.017983        -0.4893
  34   0.0000      -0.016456        -0.4478
  35   0.0000       0.012179         0.3314
  36   0.0000       0.030657         0.8342

MULLIKEN ATOMIC CHARGES
-----------------------
   0 C :   -0.220795
   1 C :   -0.215943
   2 C :   -0.220793
   3 C :   -0.202323
   4 S :    0.299985
   5 C :   -0.202317
   6 C :   -0.257163
   7 H :    0.141848
   8 H :    0.159459
   9 H :    0.154095
  10 H :    0.180585
  11 H :    0.157445
  12 H :    0.126814
  13 H :    0.154097
  14 H :    0.159458
  15 H :    0.180586
  16 H :    0.141845
  17 H :    0.142000
  18 H :    0.160559
  19 H :    0.160559
Sum of atomic charges:    1.0000000

LOEWDIN ATOMIC CHARGES
----------------------
   0 C :    0.055217
   1 C :    0.067991
   2 C :    0.055227
   3 C :   -0.009935
   4 S :    0.952842
   5 C :   -0.009941
   6 C :    0.047301
   7 H :   -0.010883
   8 H :    0.000422
   9 H :   -0.021596
  10 H :   -0.014076
  11 H :   -0.003530
  12 H :   -0.015597
  13 H :   -0.021597
  14 H :    0.000425
  15 H :   -0.014074
  16 H :   -0.010882
  17 H :   -0.022958
  18 H :   -0.012178
  19 H :   -0.012178

  Mayer bond orders larger than 0.1
B(  0-C ,  1-C ) :   0.9415 B(  0-C ,  5-C ) :   0.9438 B(  0-C , 14-H ) :   0.9687
B(  0-C , 16-H ) :   0.9725 B(  1-C ,  2-C ) :   0.9415 B(  1-C , 11-H ) :   0.9791
B(  1-C , 12-H ) :   0.9783 B(  2-C ,  3-C ) :   0.9438 B(  2-C ,  7-H ) :   0.9725
B(  2-C ,  8-H ) :   0.9687 B(  3-C ,  4-S ) :   0.9184 B(  3-C ,  9-H ) :   0.9631
B(  3-C , 10-H ) :   0.9648 B(  4-S ,  5-C ) :   0.9184 B(  4-S ,  6-C ) :   0.9561
B(  5-C , 13-H ) :   0.9631 B(  5-C , 15-H ) :   0.9648 B(  6-C , 17-H ) :   0.9598
B(  6-C , 18-H ) :   0.9566 B(  6-C , 19-H ) :   0.9566

E(0)                                       ...   -632.184908471
E(0)                                       ...   -632.184908471
E(CORR)(strong-pairs)                      ...     -1.280093820
E(CORR)(weak-pairs)                        ...     -0.001216643
E(CORR)(corrected)                         ...     -1.281310463
E(TOT)                                     ...   -633.466218934
E(CCSD(T))                                 ...   -633.519354038
FINAL SINGLE POINT ENERGY      -633.519354037689

DIPOLE MOMENT
-------------
                                X             Y             Z
Electronic contribution:      3.16075       0.00008      -3.10619
Nuclear contribution   :     -2.23334      -0.00008       3.53696
                        -----------------------------------------
Total Dipole Moment    :      0.92742       0.00000       0.43077
                        -----------------------------------------
Magnitude (a.u.)       :      1.02258
Magnitude (Debye)      :      2.59918

Rotational constants in cm-1:     0.119004     0.058240     0.044239
Rotational constants in MHz :  3567.657507  1745.990434  1326.244108

                             ****ORCA TERMINATED NORMALLY****
TOTAL RUN TIME: 0 days 0 hours 8 minutes 52 seconds 998 msec
