                         Program Version 4.1.x  -  STABLE  -
|  1> ! RHF DLPNO-CCSD(T) cc-pVTZ RIJK cc-pVTZ/JK cc-pVTZ/C
|  2> ! KDIIS SOSCF TightSCF TightPNO
|  3>
|  4> %pal nprocs 8 end
|  5>
|  6> %maxcore 8000
|  7>
|  8> %scf maxiter 300
|  9>      shift shift 0.2 erroff 0.1 end
| 10> end
| 11>
| 12> * xyzfile 1 1 s_methylthianium_ax.xyz
| 13>
| 14>
| 15>                          ****END OF INPUT****

CARTESIAN COORDINATES (ANGSTROEM)
---------------------------------
  C      1.185630   -1.281650    0.379120
  C      2.000970    0.000020    0.149280
  C      1.185590    1.281660    0.379140
  C     -0.004810    1.430140   -0.568930
  S     -1.179350   -0.000000   -0.561620
  C     -0.004800   -1.430140   -0.568920
  C     -1.868270   -0.000010    1.126810
  H      0.852000    1.341680    1.421840
  H      1.818150    2.161710    0.215130
  H      0.307720    1.493190   -1.616510
  H     -0.625610    2.304350   -0.352890
  H      2.859770    0.000010    0.826740
  H      2.411590    0.000030   -0.869260
  H      0.307720   -1.493220   -1.616510
  H      1.818200   -2.161690    0.215070
  H     -0.625580   -2.304350   -0.352840
  H      0.852050   -1.341710    1.421830
  H     -1.084880   -0.000080    1.883560
  H     -2.493670    0.890500    1.215430
  H     -2.493760   -0.890460    1.215360

 Total Charge           Charge          ....    1
 Multiplicity           Mult            ....    1
 Number of Electrons    NEL             ....   64
 Basis Dimension        Dim             ....  396

ORBITAL ENERGIES
----------------

  NO   OCC          E(Eh)            E(eV)
   0   2.0000     -92.218979     -2509.4060
   1   2.0000     -11.449218      -311.5491
   2   2.0000     -11.449210      -311.5488
   3   2.0000     -11.444932      -311.4324
   4   2.0000     -11.394091      -310.0490
   5   2.0000     -11.394090      -310.0489
   6   2.0000     -11.379478      -309.6513
   7   2.0000      -9.215939      -250.7784
   8   2.0000      -6.896794      -187.6713
   9   2.0000      -6.896664      -187.6678
  10   2.0000      -6.895672      -187.6408
  11   2.0000      -1.324042       -36.0290
  12   2.0000      -1.225430       -33.3457
  13   2.0000      -1.201809       -32.7029
  14   2.0000      -1.132884       -30.8273
  15   2.0000      -1.025492       -27.9051
  16   2.0000      -1.018628       -27.7183
  17   2.0000      -0.927363       -25.2348
  18   2.0000      -0.826925       -22.5018
  19   2.0000      -0.810011       -22.0415
  20   2.0000      -0.802605       -21.8400
  21   2.0000      -0.770031       -20.9536
  22   2.0000      -0.762853       -20.7583
  23   2.0000      -0.758577       -20.6419
  24   2.0000      -0.722145       -19.6506
  25   2.0000      -0.710581       -19.3359
  26   2.0000      -0.686181       -18.6719
  27   2.0000      -0.673714       -18.3327
  28   2.0000      -0.665384       -18.1060
  29   2.0000      -0.628899       -17.1132
  30   2.0000      -0.615476       -16.7480
  31   2.0000      -0.593800       -16.1581
  32   0.0000      -0.024394        -0.6638
  33   0.0000      -0.015452        -0.4205
  34   0.0000      -0.014601        -0.3973
  35   0.0000       0.018253         0.4967
  36   0.0000       0.022097         0.6013

MULLIKEN ATOMIC CHARGES
-----------------------
   0 C :   -0.234238
   1 C :   -0.205983
   2 C :   -0.234241
   3 C :   -0.214273
   4 S :    0.289943
   5 C :   -0.214274
   6 C :   -0.266112
   7 H :    0.135799
   8 H :    0.169669
   9 H :    0.173153
  10 H :    0.182155
  11 H :    0.157620
  12 H :    0.127003
  13 H :    0.173151
  14 H :    0.169669
  15 H :    0.182153
  16 H :    0.135794
  17 H :    0.146001
  18 H :    0.163504
  19 H :    0.163506
Sum of atomic charges:    1.0000000

LOEWDIN ATOMIC CHARGES
----------------------
   0 C :    0.051997
   1 C :    0.070279
   2 C :    0.051999
   3 C :   -0.012434
   4 S :    0.951595
   5 C :   -0.012433
   6 C :    0.046912
   7 H :   -0.016666
   8 H :    0.002344
   9 H :   -0.011576
  10 H :   -0.012400
  11 H :   -0.003716
  12 H :   -0.014000
  13 H :   -0.011572
  14 H :    0.002345
  15 H :   -0.012403
  16 H :   -0.016664
  17 H :   -0.028611
  18 H :   -0.012497
  19 H :   -0.012499

  Mayer bond orders larger than 0.1
B(  0-C ,  1-C ) :   0.9377 B(  0-C ,  5-C ) :   0.9363 B(  0-C , 14-H ) :   0.9657
B(  0-C , 16-H ) :   0.9734 B(  1-C ,  2-C ) :   0.9377 B(  1-C , 11-H ) :   0.9790
B(  1-C , 12-H ) :   0.9795 B(  2-C ,  3-C ) :   0.9363 B(  2-C ,  7-H ) :   0.9734
B(  2-C ,  8-H ) :   0.9657 B(  3-C ,  4-S ) :   0.9249 B(  3-C ,  9-H ) :   0.9599
B(  3-C , 10-H ) :   0.9641 B(  4-S ,  5-C ) :   0.9249 B(  4-S ,  6-C ) :   0.9416
B(  5-C , 13-H ) :   0.9599 B(  5-C , 15-H ) :   0.9641 B(  6-C , 17-H ) :   0.9583
B(  6-C , 18-H ) :   0.9564 B(  6-C , 19-H ) :   0.9564

E(0)                                       ...   -632.182855762
E(0)                                       ...   -632.182855762
E(CORR)(strong-pairs)                      ...     -1.280905594
E(CORR)(weak-pairs)                        ...     -0.001216911
E(CORR)(corrected)                         ...     -1.282122505
E(TOT)                                     ...   -633.464978266
E(CCSD(T))                                 ...   -633.518246950
FINAL SINGLE POINT ENERGY      -633.518246950224

DIPOLE MOMENT
-------------
                                X             Y             Z
Electronic contribution:     -4.62357       0.00006      -3.58243
Nuclear contribution   :      4.10293      -0.00006       3.77405
                        -----------------------------------------
Total Dipole Moment    :     -0.52064      -0.00000       0.19162
                        -----------------------------------------
Magnitude (a.u.)       :      0.55478
Magnitude (Debye)      :      1.41015

Rotational constants in cm-1:     0.097606     0.064932     0.052064
Rotational constants in MHz :  2926.149788  1946.614687  1560.832664

                             ****ORCA TERMINATED NORMALLY****
TOTAL RUN TIME: 0 days 0 hours 10 minutes 8 seconds 312 msec
