                         Program Version 4.1.x  -  STABLE  -
|  1> ! RHF DLPNO-CCSD(T) cc-pVTZ RIJK cc-pVTZ/JK cc-pVTZ/C
|  2> ! KDIIS SOSCF TightSCF TightPNO
|  3>
|  4> %pal nprocs 8 end
|  5>
|  6> %maxcore 8000
|  7>
|  8> %scf maxiter 300
|  9>      shift shift 0.2 erroff 0.1 end
| 10> end
| 11>
| 12> * xyzfile 0 1 sulfolane_halfchair.xyz
| 13>
| 14>
| 15>                          ****END OF INPUT****

CARTESIAN COORDINATES (ANGSTROEM)
---------------------------------
  C     -1.786610    0.759340   -0.143550
  C     -0.451350    1.315790    0.363420
  S      0.788310    0.000020    0.000020
  C     -0.451270   -1.315700   -0.363680
  C     -1.786490   -0.759420    0.143570
  O      1.522520   -0.334650    1.236600
  O      1.522890    0.334600   -1.236370
  H     -0.114460    2.225780   -0.135470
  H     -0.438830    1.452260    1.447490
  H     -0.114310   -2.225830    0.134930
  H     -0.438840   -1.451870   -1.447790
  H     -1.879800   -0.934590    1.221540
  H     -2.627720   -1.260460   -0.344700
  H     -2.627800    1.260310    0.344850
  H     -1.880150    0.934480   -1.221510

 Total Charge           Charge          ....    0
 Multiplicity           Mult            ....    1
 Number of Electrons    NEL             ....   64
 Basis Dimension        Dim             ....  326

ORBITAL ENERGIES
----------------

  NO   OCC          E(Eh)            E(eV)
   0   2.0000     -92.171251     -2508.1072
   1   2.0000     -20.536752      -558.8334
   2   2.0000     -20.536731      -558.8329
   3   2.0000     -11.280703      -306.9635
   4   2.0000     -11.280686      -306.9631
   5   2.0000     -11.266996      -306.5905
   6   2.0000     -11.266422      -306.5749
   7   2.0000      -9.141907      -248.7639
   8   2.0000      -6.826303      -185.7531
   9   2.0000      -6.825652      -185.7354
  10   2.0000      -6.825629      -185.7348
  11   2.0000      -1.422564       -38.7099
  12   2.0000      -1.315424       -35.7945
  13   2.0000      -1.145207       -31.1627
  14   2.0000      -1.024459       -27.8769
  15   2.0000      -0.968614       -26.3573
  16   2.0000      -0.835120       -22.7248
  17   2.0000      -0.800509       -21.7829
  18   2.0000      -0.695598       -18.9282
  19   2.0000      -0.685771       -18.6608
  20   2.0000      -0.635467       -17.2919
  21   2.0000      -0.632227       -17.2038
  22   2.0000      -0.612830       -16.6759
  23   2.0000      -0.607991       -16.5443
  24   2.0000      -0.558489       -15.1973
  25   2.0000      -0.540638       -14.7115
  26   2.0000      -0.525781       -14.3072
  27   2.0000      -0.519101       -14.1255
  28   2.0000      -0.478015       -13.0074
  29   2.0000      -0.471312       -12.8251
  30   2.0000      -0.457850       -12.4587
  31   2.0000      -0.415871       -11.3164
  32   0.0000       0.117557         3.1989
  33   0.0000       0.144194         3.9237
  34   0.0000       0.157849         4.2953
  35   0.0000       0.166455         4.5295
  36   0.0000       0.189195         5.1483

MULLIKEN ATOMIC CHARGES
-----------------------
   0 C :   -0.213464
   1 C :   -0.207406
   2 S :    0.950342
   3 C :   -0.207404
   4 C :   -0.213447
   5 O :   -0.573544
   6 O :   -0.573541
   7 H :    0.141394
   8 H :    0.136751
   9 H :    0.141390
  10 H :    0.136747
  11 H :    0.116153
  12 H :    0.124936
  13 H :    0.124949
  14 H :    0.116143
Sum of atomic charges:    0.0000000

LOEWDIN ATOMIC CHARGES
----------------------
   0 C :    0.049771
   1 C :    0.003909
   2 S :    0.683051
   3 C :    0.003891
   4 C :    0.049765
   5 O :   -0.304661
   6 O :   -0.304667
   7 H :   -0.027058
   8 H :   -0.026214
   9 H :   -0.027049
  10 H :   -0.026215
  11 H :   -0.018070
  12 H :   -0.019191
  13 H :   -0.019192
  14 H :   -0.018070

  Mayer bond orders larger than 0.1
B(  0-C ,  1-C ) :   0.9489 B(  0-C ,  4-C ) :   0.9355 B(  0-C , 13-H ) :   0.9777
B(  0-C , 14-H ) :   0.9790 B(  1-C ,  2-S ) :   0.8732 B(  1-C ,  7-H ) :   0.9696
B(  1-C ,  8-H ) :   0.9646 B(  2-S ,  3-C ) :   0.8733 B(  2-S ,  5-O ) :   1.8073
B(  2-S ,  6-O ) :   1.8073 B(  3-C ,  4-C ) :   0.9489 B(  3-C ,  9-H ) :   0.9695
B(  3-C , 10-H ) :   0.9646 B(  4-C , 11-H ) :   0.9790 B(  4-C , 12-H ) :   0.9777

E(0)                                       ...   -703.461824008
E(0)                                       ...   -703.461824008
E(CORR)(strong-pairs)                      ...     -1.382248860
E(CORR)(weak-pairs)                        ...     -0.001329137
E(CORR)(corrected)                         ...     -1.383577997
E(TOT)                                     ...   -704.845402005
E(CCSD(T))                                 ...   -704.905340157
FINAL SINGLE POINT ENERGY      -704.905340157152

DIPOLE MOMENT
-------------
                                X             Y             Z
Electronic contribution:      7.73227       0.00003       0.00043
Nuclear contribution   :    -10.10081       0.00007      -0.00066
                        -----------------------------------------
Total Dipole Moment    :     -2.36854       0.00010      -0.00023
                        -----------------------------------------
Magnitude (a.u.)       :      2.36854
Magnitude (Debye)      :      6.02034

Rotational constants in cm-1:     0.121870     0.065812     0.061350
Rotational constants in MHz :  3653.574193  1972.989756  1839.213647

                             ****ORCA TERMINATED NORMALLY****
TOTAL RUN TIME: 0 days 0 hours 9 minutes 1 seconds 602 msec
