                         Program Version 4.1.x  -  STABLE  -
|  1> ! RHF DLPNO-CCSD(T) cc-pVTZ RIJK cc-pVTZ/JK cc-pVTZ/C
|  2> ! KDIIS SOSCF TightSCF TightPNO
|  3>
|  4> %pal nprocs 8 end
|  5>
|  6> %maxcore 8000
|  7>
|  8> %scf maxiter 300
|  9>      shift shift 0.2 erroff 0.1 end
| 10> end
| 11>
| 12> * xyzfile 0 1 sulfolane_envelope.xyz
| 13>
| 14>
| 15>                          ****END OF INPUT****

CARTESIAN COORDINATES (ANGSTROEM)
---------------------------------
  C     -1.766840   -0.786840    0.038250
  C     -0.394130   -1.320400   -0.402290
  S      0.782450    0.000000    0.048490
  C     -0.394160    1.320620   -0.401660
  C     -1.766990    0.786760    0.038220
  O      1.967380    0.000230   -0.828150
  O      0.940200   -0.000390    1.517620
  H     -0.082170   -2.236000    0.103410
  H     -0.306100   -1.451850   -1.484200
  H     -0.305890    1.452790   -1.483450
  H     -0.082320    2.235890    0.104710
  H     -2.542640    1.174180   -0.627860
  H     -1.993060    1.147790    1.043970
  H     -2.542770   -1.174460   -0.627390
  H     -1.992250   -1.147890    1.044140

 Total Charge           Charge          ....    0
 Multiplicity           Mult            ....    1
 Number of Electrons    NEL             ....   64
 Basis Dimension        Dim             ....  326

ORBITAL ENERGIES
----------------

  NO   OCC          E(Eh)            E(eV)
   0   2.0000     -92.171544     -2508.1152
   1   2.0000     -20.539926      -558.9198
   2   2.0000     -20.537387      -558.8507
   3   2.0000     -11.280933      -306.9698
   4   2.0000     -11.280913      -306.9692
   5   2.0000     -11.264397      -306.5198
   6   2.0000     -11.263891      -306.5061
   7   2.0000      -9.142336      -248.7756
   8   2.0000      -6.826798      -185.7666
   9   2.0000      -6.826123      -185.7482
  10   2.0000      -6.826043      -185.7461
  11   2.0000      -1.425012       -38.7765
  12   2.0000      -1.317358       -35.8471
  13   2.0000      -1.139126       -30.9972
  14   2.0000      -1.025197       -27.8970
  15   2.0000      -0.972880       -26.4734
  16   2.0000      -0.828053       -22.5325
  17   2.0000      -0.802345       -21.8329
  18   2.0000      -0.689884       -18.7727
  19   2.0000      -0.685017       -18.6403
  20   2.0000      -0.656532       -17.8651
  21   2.0000      -0.629998       -17.1431
  22   2.0000      -0.603878       -16.4324
  23   2.0000      -0.597614       -16.2619
  24   2.0000      -0.563973       -15.3465
  25   2.0000      -0.539783       -14.6882
  26   2.0000      -0.522208       -14.2100
  27   2.0000      -0.508152       -13.8275
  28   2.0000      -0.479726       -13.0540
  29   2.0000      -0.475450       -12.9376
  30   2.0000      -0.460409       -12.5284
  31   2.0000      -0.417475       -11.3601
  32   0.0000       0.115713         3.1487
  33   0.0000       0.148218         4.0332
  34   0.0000       0.159493         4.3400
  35   0.0000       0.160311         4.3623
  36   0.0000       0.192115         5.2277

MULLIKEN ATOMIC CHARGES
-----------------------
   0 C :   -0.208770
   1 C :   -0.213675
   2 S :    0.961407
   3 C :   -0.213677
   4 C :   -0.208768
   5 O :   -0.564611
   6 O :   -0.581582
   7 H :    0.139125
   8 H :    0.132202
   9 H :    0.132220
  10 H :    0.139127
  11 H :    0.120847
  12 H :    0.122641
  13 H :    0.120867
  14 H :    0.122646
Sum of atomic charges:    0.0000000

LOEWDIN ATOMIC CHARGES
----------------------
   0 C :    0.062896
   1 C :   -0.005997
   2 S :    0.678503
   3 C :   -0.005975
   4 C :    0.062912
   5 O :   -0.298249
   6 O :   -0.303938
   7 H :   -0.025128
   8 H :   -0.027902
   9 H :   -0.027908
  10 H :   -0.025132
  11 H :   -0.023829
  12 H :   -0.018214
  13 H :   -0.023827
  14 H :   -0.018213

  Mayer bond orders larger than 0.1
B(  0-C ,  1-C ) :   0.9385 B(  0-C ,  4-C ) :   0.9154 B(  0-C , 13-H ) :   0.9828
B(  0-C , 14-H ) :   0.9835 B(  1-C ,  2-S ) :   0.8924 B(  1-C ,  7-H ) :   0.9700
B(  1-C ,  8-H ) :   0.9699 B(  2-S ,  3-C ) :   0.8924 B(  2-S ,  5-O ) :   1.8220
B(  2-S ,  6-O ) :   1.7993 B(  3-C ,  4-C ) :   0.9385 B(  3-C ,  9-H ) :   0.9699
B(  3-C , 10-H ) :   0.9700 B(  4-C , 11-H ) :   0.9828 B(  4-C , 12-H ) :   0.9835

E(0)                                       ...   -703.459527961
E(0)                                       ...   -703.459527961
E(CORR)(strong-pairs)                      ...     -1.382431781
E(CORR)(weak-pairs)                        ...     -0.001319484
E(CORR)(corrected)                         ...     -1.383751264
E(TOT)                                     ...   -704.843279225
E(CCSD(T))                                 ...   -704.903141276
FINAL SINGLE POINT ENERGY      -704.903141276388

DIPOLE MOMENT
-------------
                                X             Y             Z
Electronic contribution:      7.64681      -0.00026       1.15815
Nuclear contribution   :     -9.82801       0.00045      -1.91779
                        -----------------------------------------
Total Dipole Moment    :     -2.18120       0.00019      -0.75964
                        -----------------------------------------
Magnitude (a.u.)       :      2.30969
Magnitude (Debye)      :      5.87076

Rotational constants in cm-1:     0.124171     0.066341     0.062114
Rotational constants in MHz :  3722.549319  1988.841112  1862.127064

                             ****ORCA TERMINATED NORMALLY****
TOTAL RUN TIME: 0 days 0 hours 9 minutes 7 seconds 621 msec
