                         Program Version 4.1.x  -  STABLE  -
|  1> ! RHF DLPNO-CCSD(T) cc-pVTZ RIJK cc-pVTZ/JK cc-pVTZ/C
|  2> ! KDIIS SOSCF TightSCF TightPNO
|  3>
|  4> %pal nprocs 8 end
|  5>
|  6> %maxcore 8000
|  7>
|  8> %scf maxiter 300
|  9>      shift shift 0.2 erroff 0.1 end
| 10> end
| 11>
| 12> * xyzfile 0 1 t_butylcyclohexane_ax.xyz
| 13>
| 14>
| 15>                          ****END OF INPUT****

CARTESIAN COORDINATES (ANGSTROEM)
---------------------------------
  C     -0.170100    0.000030   -0.819320
  C      0.732140    1.264490   -0.759890
  C      1.817590    1.263620    0.332760
  C      2.685300   -0.000030    0.262980
  C      1.817540   -1.263650    0.332730
  C      0.732080   -1.264450   -0.759930
  C     -1.452220    0.000010    0.097650
  C     -1.177180   -0.000210    1.616670
  C     -2.311070   -1.243790   -0.232780
  C     -2.310940    1.243970   -0.232490
  H      2.442710    2.158400    0.216740
  H      1.363710    1.334700    1.328640
  H      3.428820   -0.000050    1.069790
  H      3.248130   -0.000020   -0.682580
  H      1.363670   -1.334720    1.328610
  H      2.442620   -2.158440    0.216660
  H      1.246560    1.334890   -1.729630
  H      0.126060    2.172620   -0.683830
  H      0.125950   -2.172540   -0.683850
  H      1.246490   -1.334880   -1.729670
  H     -0.602230    0.000050   -1.831050
  H     -3.272450   -1.190240    0.291000
  H     -2.521340   -1.309930   -1.307230
  H     -1.828330   -2.176720    0.073640
  H     -3.272380    1.190330    0.291160
  H     -1.828160    2.176780    0.074270
  H     -2.521090    1.310460   -1.306940
  H     -2.127830   -0.000190    2.163910
  H     -0.619980   -0.886120    1.934910
  H     -0.619830    0.885530    1.935160

 Total Charge           Charge          ....    0
 Multiplicity           Mult            ....    1
 Number of Electrons    NEL             ....   80
 Basis Dimension        Dim             ....  580

ORBITAL ENERGIES
----------------

  NO   OCC          E(Eh)            E(eV)
   0   2.0000     -11.234317      -305.7013
   1   2.0000     -11.221875      -305.3627
   2   2.0000     -11.212802      -305.1159
   3   2.0000     -11.212700      -305.1131
   4   2.0000     -11.212470      -305.1068
   5   2.0000     -11.211970      -305.0932
   6   2.0000     -11.211720      -305.0864
   7   2.0000     -11.207354      -304.9676
   8   2.0000     -11.207209      -304.9637
   9   2.0000     -11.207191      -304.9632
  10   2.0000      -1.119999       -30.4767
  11   2.0000      -1.073052       -29.1992
  12   2.0000      -0.995002       -27.0754
  13   2.0000      -0.984530       -26.7904
  14   2.0000      -0.924667       -25.1615
  15   2.0000      -0.922549       -25.1038
  16   2.0000      -0.835586       -22.7374
  17   2.0000      -0.823674       -22.4133
  18   2.0000      -0.762240       -20.7416
  19   2.0000      -0.700960       -19.0741
  20   2.0000      -0.645282       -17.5590
  21   2.0000      -0.627646       -17.0791
  22   2.0000      -0.609835       -16.5945
  23   2.0000      -0.600488       -16.3401
  24   2.0000      -0.580654       -15.8004
  25   2.0000      -0.567034       -15.4298
  26   2.0000      -0.545209       -14.8359
  27   2.0000      -0.539936       -14.6924
  28   2.0000      -0.536448       -14.5975
  29   2.0000      -0.522648       -14.2220
  30   2.0000      -0.506169       -13.7736
  31   2.0000      -0.505307       -13.7501
  32   2.0000      -0.500680       -13.6242
  33   2.0000      -0.476042       -12.9538
  34   2.0000      -0.463088       -12.6013
  35   2.0000      -0.454701       -12.3731
  36   2.0000      -0.453655       -12.3446
  37   2.0000      -0.418128       -11.3778
  38   2.0000      -0.416235       -11.3263
  39   2.0000      -0.410700       -11.1757
  40   0.0000       0.134064         3.6481
  41   0.0000       0.152890         4.1604
  42   0.0000       0.161123         4.3844
  43   0.0000       0.167782         4.5656
  44   0.0000       0.183419         4.9911

MULLIKEN ATOMIC CHARGES
-----------------------
   0 C :   -0.107495
   1 C :   -0.223937
   2 C :   -0.206541
   3 C :   -0.184120
   4 C :   -0.206546
   5 C :   -0.223955
   6 C :    0.048135
   7 C :   -0.351284
   8 C :   -0.322176
   9 C :   -0.322184
  10 H :    0.112176
  11 H :    0.092508
  12 H :    0.107613
  13 H :    0.083467
  14 H :    0.092511
  15 H :    0.112180
  16 H :    0.102405
  17 H :    0.117469
  18 H :    0.117471
  19 H :    0.102411
  20 H :    0.115129
  21 H :    0.102219
  22 H :    0.100992
  23 H :    0.102336
  24 H :    0.102226
  25 H :    0.102330
  26 H :    0.100997
  27 H :    0.112558
  28 H :    0.110554
  29 H :    0.110551
Sum of atomic charges:   -0.0000000

LOEWDIN ATOMIC CHARGES
----------------------
   0 C :    0.007108
   1 C :    0.068037
   2 C :    0.056603
   3 C :    0.054982
   4 C :    0.056613
   5 C :    0.068038
   6 C :   -0.090765
   7 C :    0.113779
   8 C :    0.114284
   9 C :    0.114280
  10 H :   -0.026926
  11 H :   -0.032692
  12 H :   -0.028183
  13 H :   -0.027452
  14 H :   -0.032693
  15 H :   -0.026932
  16 H :   -0.022552
  17 H :   -0.029456
  18 H :   -0.029458
  19 H :   -0.022552
  20 H :   -0.019040
  21 H :   -0.027456
  22 H :   -0.027367
  23 H :   -0.032990
  24 H :   -0.027458
  25 H :   -0.032983
  26 H :   -0.027367
  27 H :   -0.025175
  28 H :   -0.032116
  29 H :   -0.032112

  Mayer bond orders larger than 0.1
B(  0-C ,  1-C ) :   0.9450 B(  0-C ,  5-C ) :   0.9450 B(  0-C ,  6-C ) :   0.9569
B(  0-C , 20-H ) :   0.9962 B(  1-C ,  2-C ) :   0.9478 B(  1-C , 16-H ) :   0.9919
B(  1-C , 17-H ) :   0.9919 B(  2-C ,  3-C ) :   0.9481 B(  2-C , 10-H ) :   0.9945
B(  2-C , 11-H ) :   0.9820 B(  3-C ,  4-C ) :   0.9481 B(  3-C , 12-H ) :   0.9957
B(  3-C , 13-H ) :   0.9868 B(  4-C ,  5-C ) :   0.9478 B(  4-C , 14-H ) :   0.9820
B(  4-C , 15-H ) :   0.9945 B(  5-C , 18-H ) :   0.9919 B(  5-C , 19-H ) :   0.9919
B(  6-C ,  7-C ) :   0.9365 B(  6-C ,  8-C ) :   0.9554 B(  6-C ,  9-C ) :   0.9554
B(  7-C , 27-H ) :   0.9842 B(  7-C , 28-H ) :   0.9824 B(  7-C , 29-H ) :   0.9824
B(  8-C , 21-H ) :   0.9868 B(  8-C , 22-H ) :   0.9835 B(  8-C , 23-H ) :   0.9835
B(  9-C , 24-H ) :   0.9868 B(  9-C , 25-H ) :   0.9835 B(  9-C , 26-H ) :   0.9835

E(0)                                       ...   -390.454930021
E(0)                                       ...   -390.454930021
E(CORR)(strong-pairs)                      ...     -1.853549650
E(CORR)(weak-pairs)                        ...     -0.002393411
E(CORR)(corrected)                         ...     -1.855943061
E(TOT)                                     ...   -392.310873082
E(CCSD(T))                                 ...   -392.386229475
FINAL SINGLE POINT ENERGY      -392.386229474948

DIPOLE MOMENT
-------------
                                X             Y             Z
Electronic contribution:      2.34130       0.00005      -1.06030
Nuclear contribution   :     -2.33384      -0.00006       1.03868
                        -----------------------------------------
Total Dipole Moment    :      0.00746      -0.00001      -0.02162
                        -----------------------------------------
Magnitude (a.u.)       :      0.02287
Magnitude (Debye)      :      0.05813

Rotational constants in cm-1:     0.068187     0.031961     0.028324
Rotational constants in MHz :  2044.195689   958.154722   849.124228

                             ****ORCA TERMINATED NORMALLY****
TOTAL RUN TIME: 0 days 0 hours 52 minutes 13 seconds 287 msec
