                         Program Version 4.1.x  -  STABLE  -
|  1> ! RHF DLPNO-CCSD(T) cc-pVTZ RIJK cc-pVTZ/JK cc-pVTZ/C
|  2> ! KDIIS SOSCF TightSCF TightPNO
|  3>
|  4> %pal nprocs 8 end
|  5>
|  6> %maxcore 8000
|  7>
|  8> %scf maxiter 300
|  9>      shift shift 0.2 erroff 0.1 end
| 10> end
| 11>
| 12> * xyzfile 0 1 t_butylcyclohexane_eq.xyz
| 13>
| 14>
| 15>                          ****END OF INPUT****

CARTESIAN COORDINATES (ANGSTROEM)
---------------------------------
  C     -0.070550   -0.000050   -0.319480
  C      0.676460   -1.258180    0.179270
  C      2.155630   -1.263290   -0.244850
  C      2.888890    0.000040    0.225270
  C      2.155540    1.263300   -0.244860
  C      0.676380    1.258080    0.179320
  C     -1.611930   -0.000020   -0.016780
  C     -1.914930   -0.000030    1.496860
  C     -2.271980   -1.244930   -0.652030
  C     -2.271770    1.245030   -0.651980
  H      2.651230   -2.160700    0.146590
  H      2.215480   -1.328220   -1.341340
  H      3.924150    0.000080   -0.138500
  H      2.942990    0.000050    1.323980
  H      2.215360    1.328240   -1.341350
  H      2.651070    2.160760    0.146580
  H      0.623580   -1.305180    1.276390
  H      0.195200   -2.167260   -0.195570
  H      0.195020    2.167150   -0.195450
  H      0.623580    1.305030    1.276440
  H      0.009450   -0.000010   -1.419860
  H     -3.361810   -1.192080   -0.546780
  H     -2.044510   -1.311780   -1.723040
  H     -1.945750   -2.176220   -0.179500
  H     -3.361610    1.192410   -0.546670
  H     -1.945300    2.176250   -0.179460
  H     -2.044340    1.311850   -1.722990
  H     -2.998460   -0.000030    1.664390
  H     -1.507870   -0.885710    1.995880
  H     -1.507860    0.885640    1.995880

 Total Charge           Charge          ....    0
 Multiplicity           Mult            ....    1
 Number of Electrons    NEL             ....   80
 Basis Dimension        Dim             ....  580

ORBITAL ENERGIES
----------------

  NO   OCC          E(Eh)            E(eV)
   0   2.0000     -11.233115      -305.6686
   1   2.0000     -11.220254      -305.3186
   2   2.0000     -11.213794      -305.1428
   3   2.0000     -11.213613      -305.1379
   4   2.0000     -11.212685      -305.1127
   5   2.0000     -11.211253      -305.0737
   6   2.0000     -11.211223      -305.0729
   7   2.0000     -11.207005      -304.9581
   8   2.0000     -11.206996      -304.9579
   9   2.0000     -11.206971      -304.9572
  10   2.0000      -1.122850       -30.5543
  11   2.0000      -1.075279       -29.2598
  12   2.0000      -0.995929       -27.1006
  13   2.0000      -0.981077       -26.6965
  14   2.0000      -0.924821       -25.1657
  15   2.0000      -0.922774       -25.1100
  16   2.0000      -0.833931       -22.6924
  17   2.0000      -0.822680       -22.3863
  18   2.0000      -0.757632       -20.6162
  19   2.0000      -0.717629       -19.5277
  20   2.0000      -0.645602       -17.5677
  21   2.0000      -0.609600       -16.5881
  22   2.0000      -0.606038       -16.4911
  23   2.0000      -0.594533       -16.1781
  24   2.0000      -0.588630       -16.0174
  25   2.0000      -0.578717       -15.7477
  26   2.0000      -0.569824       -15.5057
  27   2.0000      -0.536455       -14.5977
  28   2.0000      -0.523132       -14.2352
  29   2.0000      -0.521720       -14.1967
  30   2.0000      -0.506744       -13.7892
  31   2.0000      -0.494997       -13.4696
  32   2.0000      -0.484051       -13.1717
  33   2.0000      -0.477407       -12.9909
  34   2.0000      -0.472936       -12.8693
  35   2.0000      -0.456578       -12.4241
  36   2.0000      -0.454875       -12.3778
  37   2.0000      -0.436040       -11.8653
  38   2.0000      -0.411679       -11.2024
  39   2.0000      -0.409583       -11.1453
  40   0.0000       0.136841         3.7236
  41   0.0000       0.153649         4.1810
  42   0.0000       0.154655         4.2084
  43   0.0000       0.163954         4.4614
  44   0.0000       0.184669         5.0251

MULLIKEN ATOMIC CHARGES
-----------------------
   0 C :   -0.048371
   1 C :   -0.216956
   2 C :   -0.198001
   3 C :   -0.184938
   4 C :   -0.197998
   5 C :   -0.216967
   6 C :    0.019710
   7 C :   -0.324068
   8 C :   -0.322513
   9 C :   -0.322516
  10 H :    0.106556
  11 H :    0.086764
  12 H :    0.107163
  13 H :    0.084492
  14 H :    0.086766
  15 H :    0.106549
  16 H :    0.090571
  17 H :    0.113520
  18 H :    0.113518
  19 H :    0.090574
  20 H :    0.099129
  21 H :    0.102571
  22 H :    0.100723
  23 H :    0.102592
  24 H :    0.102568
  25 H :    0.102586
  26 H :    0.100731
  27 H :    0.107358
  28 H :    0.103944
  29 H :    0.103944
Sum of atomic charges:    0.0000000

LOEWDIN ATOMIC CHARGES
----------------------
   0 C :    0.002962
   1 C :    0.066315
   2 C :    0.058479
   3 C :    0.054862
   4 C :    0.058476
   5 C :    0.066309
   6 C :   -0.092077
   7 C :    0.114610
   8 C :    0.114861
   9 C :    0.114862
  10 H :   -0.027549
  11 H :   -0.027345
  12 H :   -0.027977
  13 H :   -0.027604
  14 H :   -0.027347
  15 H :   -0.027546
  16 H :   -0.028128
  17 H :   -0.027956
  18 H :   -0.027950
  19 H :   -0.028130
  20 H :   -0.021572
  21 H :   -0.027413
  22 H :   -0.027341
  23 H :   -0.032013
  24 H :   -0.027414
  25 H :   -0.032012
  26 H :   -0.027346
  27 H :   -0.026023
  28 H :   -0.030495
  29 H :   -0.030496

  Mayer bond orders larger than 0.1
B(  0-C ,  1-C ) :   0.9427 B(  0-C ,  5-C ) :   0.9427 B(  0-C ,  6-C ) :   0.9800
B(  0-C , 20-H ) :   0.9762 B(  1-C ,  2-C ) :   0.9638 B(  1-C , 16-H ) :   0.9809
B(  1-C , 17-H ) :   0.9945 B(  2-C ,  3-C ) :   0.9498 B(  2-C , 10-H ) :   0.9964
B(  2-C , 11-H ) :   0.9856 B(  3-C ,  4-C ) :   0.9498 B(  3-C , 12-H ) :   0.9954
B(  3-C , 13-H ) :   0.9846 B(  4-C ,  5-C ) :   0.9638 B(  4-C , 14-H ) :   0.9856
B(  4-C , 15-H ) :   0.9964 B(  5-C , 18-H ) :   0.9945 B(  5-C , 19-H ) :   0.9809
B(  6-C ,  7-C ) :   0.9437 B(  6-C ,  8-C ) :   0.9533 B(  6-C ,  9-C ) :   0.9533
B(  7-C , 27-H ) :   0.9841 B(  7-C , 28-H ) :   0.9836 B(  7-C , 29-H ) :   0.9836
B(  8-C , 21-H ) :   0.9876 B(  8-C , 22-H ) :   0.9834 B(  8-C , 23-H ) :   0.9838
B(  9-C , 24-H ) :   0.9876 B(  9-C , 25-H ) :   0.9838 B(  9-C , 26-H ) :   0.9834

E(0)                                       ...   -390.465125461
E(0)                                       ...   -390.465125461
E(CORR)(strong-pairs)                      ...     -1.851844431
E(CORR)(weak-pairs)                        ...     -0.002493740
E(CORR)(corrected)                         ...     -1.854338171
E(TOT)                                     ...   -392.319463632
E(CCSD(T))                                 ...   -392.394548437
FINAL SINGLE POINT ENERGY      -392.394548437118

DIPOLE MOMENT
-------------
                                X             Y             Z
Electronic contribution:      2.67209      -0.00030      -0.32046
Nuclear contribution   :     -2.64610       0.00030       0.31663
                        -----------------------------------------
Total Dipole Moment    :      0.02599      -0.00000      -0.00383
                        -----------------------------------------
Magnitude (a.u.)       :      0.02627
Magnitude (Debye)      :      0.06677

Rotational constants in cm-1:     0.074449     0.028415     0.024765
Rotational constants in MHz :  2231.937207   851.851533   742.439401

                             ****ORCA TERMINATED NORMALLY****
TOTAL RUN TIME: 0 days 0 hours 49 minutes 48 seconds 809 msec
