                         Program Version 4.1.x  -  STABLE  -
|  1> ! RHF DLPNO-CCSD(T) cc-pVTZ RIJK cc-pVTZ/JK cc-pVTZ/C
|  2> ! KDIIS SOSCF TightSCF TightPNO
|  3>
|  4> %pal nprocs 8 end
|  5>
|  6> %maxcore 8000
|  7>
|  8> %scf maxiter 300
|  9>      shift shift 0.2 erroff 0.1 end
| 10> end
| 11>
| 12> * xyzfile 0 1 tBu_CMe2Cl_ts.xyz
| 13>
| 14>
| 15>                          ****END OF INPUT****

CARTESIAN COORDINATES (ANGSTROEM)
---------------------------------
  C      1.003480    0.143030   -0.000010
  C     -0.503570   -0.441580    0.000010
  C     -0.862660   -1.263680   -1.245880
  C     -0.862630   -1.263720    1.245880
  Cl    -1.771270    0.951450    0.000010
  H     -1.902540   -1.592730   -1.180540
  H     -0.748250   -0.692770   -2.168810
  H     -0.229970   -2.155410   -1.307070
  H     -1.902510   -1.592770    1.180550
  H     -0.229940   -2.155450    1.307020
  H     -0.748190   -0.692840    2.168830
  C      1.792930   -0.334720    1.244100
  C      1.793030   -0.335020   -1.243940
  C      1.060230    1.687380   -0.000170
  H      2.809750    0.068510    1.194230
  H      1.349630    0.019060    2.179020
  H      1.879740   -1.424360    1.294810
  H      2.809860    0.068190   -1.194060
  H      1.879800   -1.424670   -1.294400
  H      1.349830    0.018570   -2.178990
  H      2.110070    2.001480   -0.000180
  H      0.579780    2.115130   -0.883450
  H      0.579760    2.115290    0.883020

 Total Charge           Charge          ....    0
 Multiplicity           Mult            ....    1
 Number of Electrons    NEL             ....   74
 Basis Dimension        Dim             ....  454

ORBITAL ENERGIES
----------------

  NO   OCC          E(Eh)            E(eV)
   0   2.0000    -104.798842     -2851.7215
   1   2.0000     -11.313249      -307.8492
   2   2.0000     -11.258208      -306.3514
   3   2.0000     -11.226427      -305.4866
   4   2.0000     -11.226412      -305.4862
   5   2.0000     -11.219888      -305.3087
   6   2.0000     -11.219872      -305.3082
   7   2.0000     -11.211120      -305.0701
   8   2.0000     -10.524279      -286.3802
   9   2.0000      -7.990797      -217.4407
  10   2.0000      -7.989374      -217.4019
  11   2.0000      -7.989353      -217.4013
  12   2.0000      -1.147564       -31.2268
  13   2.0000      -1.071551       -29.1584
  14   2.0000      -1.005810       -27.3695
  15   2.0000      -0.958648       -26.0861
  16   2.0000      -0.926844       -25.2207
  17   2.0000      -0.921280       -25.0693
  18   2.0000      -0.821599       -22.3568
  19   2.0000      -0.706121       -19.2145
  20   2.0000      -0.656969       -17.8770
  21   2.0000      -0.625603       -17.0235
  22   2.0000      -0.612607       -16.6699
  23   2.0000      -0.580160       -15.7870
  24   2.0000      -0.570594       -15.5267
  25   2.0000      -0.566917       -15.4266
  26   2.0000      -0.562531       -15.3072
  27   2.0000      -0.541611       -14.7380
  28   2.0000      -0.524676       -14.2772
  29   2.0000      -0.514434       -13.9985
  30   2.0000      -0.504197       -13.7199
  31   2.0000      -0.492511       -13.4019
  32   2.0000      -0.461100       -12.5472
  33   2.0000      -0.460475       -12.5302
  34   2.0000      -0.444733       -12.1018
  35   2.0000      -0.414357       -11.2752
  36   2.0000      -0.413967       -11.2646
  37   0.0000       0.130700         3.5565
  38   0.0000       0.159507         4.3404
  39   0.0000       0.166001         4.5171
  40   0.0000       0.171773         4.6742
  41   0.0000       0.181742         4.9454

MULLIKEN ATOMIC CHARGES
-----------------------
   0 C :    0.001106
   1 C :    0.101326
   2 C :   -0.282254
   3 C :   -0.282255
   4 Cl:   -0.279646
   5 H :    0.124903
   6 H :    0.118768
   7 H :    0.099052
   8 H :    0.124904
   9 H :    0.099054
  10 H :    0.118767
  11 C :   -0.321651
  12 C :   -0.321644
  13 C :   -0.290290
  14 H :    0.111325
  15 H :    0.112278
  16 H :    0.105644
  17 H :    0.111325
  18 H :    0.105645
  19 H :    0.112275
  20 H :    0.092385
  21 H :    0.119490
  22 H :    0.119493
Sum of atomic charges:    0.0000000

LOEWDIN ATOMIC CHARGES
----------------------
   0 C :   -0.087699
   1 C :   -0.167293
   2 C :    0.089343
   3 C :    0.089347
   4 Cl:    0.145264
   5 H :   -0.022250
   6 H :   -0.025434
   7 H :   -0.025314
   8 H :   -0.022250
   9 H :   -0.025315
  10 H :   -0.025430
  11 C :    0.113595
  12 C :    0.113595
  13 C :    0.098676
  14 H :   -0.022685
  15 H :   -0.027438
  16 H :   -0.030719
  17 H :   -0.022684
  18 H :   -0.030722
  19 H :   -0.027433
  20 H :   -0.027295
  21 H :   -0.029930
  22 H :   -0.029930

  Mayer bond orders larger than 0.1
B(  0-C ,  1-C ) :   0.9221 B(  0-C , 11-C ) :   0.9530 B(  0-C , 12-C ) :   0.9530
B(  0-C , 13-C ) :   0.9564 B(  1-C ,  2-C ) :   0.9423 B(  1-C ,  3-C ) :   0.9423
B(  1-C ,  4-Cl) :   0.9396 B(  2-C ,  5-H ) :   0.9817 B(  2-C ,  6-H ) :   0.9790
B(  2-C ,  7-H ) :   0.9747 B(  3-C ,  8-H ) :   0.9817 B(  3-C ,  9-H ) :   0.9747
B(  3-C , 10-H ) :   0.9790 B( 11-C , 14-H ) :   0.9840 B( 11-C , 15-H ) :   0.9824
B( 11-C , 16-H ) :   0.9832 B( 12-C , 17-H ) :   0.9840 B( 12-C , 18-H ) :   0.9832
B( 12-C , 19-H ) :   0.9824 B( 13-C , 20-H ) :   0.9845 B( 13-C , 21-H ) :   0.9770
B( 13-C , 22-H ) :   0.9770

E(0)                                       ...   -733.409973737
E(0)                                       ...   -733.409973737
E(CORR)(strong-pairs)                      ...     -1.524847920
E(CORR)(weak-pairs)                        ...     -0.001629726
E(CORR)(corrected)                         ...     -1.526477646
E(TOT)                                     ...   -734.936451382
E(CCSD(T))                                 ...   -734.998643904
FINAL SINGLE POINT ENERGY      -734.998643903682

DIPOLE MOMENT
-------------
                                X             Y             Z
Electronic contribution:    -11.78092       6.19627       0.00005
Nuclear contribution   :     12.51042      -6.90085      -0.00005
                        -----------------------------------------
Total Dipole Moment    :      0.72950      -0.70457      -0.00000
                        -----------------------------------------
Magnitude (a.u.)       :      1.01420
Magnitude (Debye)      :      2.57789

Rotational constants in cm-1:     0.067755     0.044025     0.040472
Rotational constants in MHz :  2031.229625  1319.827518  1213.334456

                             ****ORCA TERMINATED NORMALLY****
TOTAL RUN TIME: 0 days 0 hours 19 minutes 31 seconds 758 msec
