                         Program Version 4.1.x  -  STABLE  -
|  1> ! RHF DLPNO-CCSD(T) cc-pVTZ RIJK cc-pVTZ/JK cc-pVTZ/C
|  2> ! KDIIS SOSCF TightSCF TightPNO
|  3>
|  4> %pal nprocs 8 end
|  5>
|  6> %maxcore 8000
|  7>
|  8> %scf maxiter 300
|  9>      shift shift 0.2 erroff 0.1 end
| 10> end
| 11>
| 12> * xyzfile 0 1 tBu_CMe2Cl.xyz
| 13>
| 14>
| 15>                          ****END OF INPUT****

CARTESIAN COORDINATES (ANGSTROEM)
---------------------------------
  C     -0.964150   -0.160660   -0.000000
  C      0.483530    0.450690    0.000000
  C      0.806940    1.278520   -1.246920
  C      0.806930    1.278530    1.246920
  Cl     1.717260   -0.928240    0.000010
  H      1.831370    1.626090   -1.197230
  H      0.695330    0.708100   -2.158050
  H      0.162340    2.149020   -1.297970
  H      1.831370    1.626070    1.197250
  H      0.162360    2.149050    1.297930
  H      0.695280    0.708130    2.158050
  C     -1.217990   -1.028920    1.246800
  C     -2.011940    0.973890   -0.000040
  C     -1.217960   -1.028980   -1.246760
  H     -2.216010   -1.452160    1.189270
  H     -0.514480   -1.848340    1.319750
  H     -1.167920   -0.453730    2.164340
  H     -3.004820    0.535630   -0.000060
  H     -1.941110    1.604190    0.878990
  H     -1.941070    1.604170   -0.879080
  H     -2.215950   -1.452270   -1.189210
  H     -1.167930   -0.453830   -2.164330
  H     -0.514400   -1.848370   -1.319690

 Total Charge           Charge          ....    0
 Multiplicity           Mult            ....    1
 Number of Electrons    NEL             ....   74
 Basis Dimension        Dim             ....  454

ORBITAL ENERGIES
----------------

  NO   OCC          E(Eh)            E(eV)
   0   2.0000    -104.802060     -2851.8090
   1   2.0000     -11.305423      -307.6362
   2   2.0000     -11.250611      -306.1447
   3   2.0000     -11.221654      -305.3567
   4   2.0000     -11.221640      -305.3563
   5   2.0000     -11.217416      -305.2414
   6   2.0000     -11.208445      -304.9973
   7   2.0000     -11.208431      -304.9969
   8   2.0000     -10.527740      -286.4744
   9   2.0000      -7.994321      -217.5365
  10   2.0000      -7.992844      -217.4963
  11   2.0000      -7.992824      -217.4958
  12   2.0000      -1.158295       -31.5188
  13   2.0000      -1.073503       -29.2115
  14   2.0000      -1.008121       -27.4324
  15   2.0000      -0.957772       -26.0623
  16   2.0000      -0.936822       -25.4922
  17   2.0000      -0.925600       -25.1869
  18   2.0000      -0.828643       -22.5485
  19   2.0000      -0.708152       -19.2698
  20   2.0000      -0.655412       -17.8347
  21   2.0000      -0.619860       -16.8672
  22   2.0000      -0.614226       -16.7139
  23   2.0000      -0.603750       -16.4289
  24   2.0000      -0.591065       -16.0837
  25   2.0000      -0.564304       -15.3555
  26   2.0000      -0.545176       -14.8350
  27   2.0000      -0.536149       -14.5894
  28   2.0000      -0.528480       -14.3807
  29   2.0000      -0.521750       -14.1975
  30   2.0000      -0.507166       -13.8007
  31   2.0000      -0.494288       -13.4503
  32   2.0000      -0.468670       -12.7532
  33   2.0000      -0.460032       -12.5181
  34   2.0000      -0.450259       -12.2522
  35   2.0000      -0.417257       -11.3541
  36   2.0000      -0.417029       -11.3479
  37   0.0000       0.134381         3.6567
  38   0.0000       0.164380         4.4730
  39   0.0000       0.171816         4.6753
  40   0.0000       0.172693         4.6992
  41   0.0000       0.184522         5.0211

MULLIKEN ATOMIC CHARGES
-----------------------
   0 C :    0.035241
   1 C :    0.110308
   2 C :   -0.300060
   3 C :   -0.300062
   4 Cl:   -0.268921
   5 H :    0.125733
   6 H :    0.123010
   7 H :    0.102442
   8 H :    0.125733
   9 H :    0.102444
  10 H :    0.123012
  11 C :   -0.328315
  12 C :   -0.341941
  13 C :   -0.328318
  14 H :    0.106084
  15 H :    0.131919
  16 H :    0.101948
  17 H :    0.115523
  18 H :    0.112134
  19 H :    0.112134
  20 H :    0.106089
  21 H :    0.101948
  22 H :    0.131916
Sum of atomic charges:   -0.0000000

LOEWDIN ATOMIC CHARGES
----------------------
   0 C :   -0.106847
   1 C :   -0.209141
   2 C :    0.104560
   3 C :    0.104564
   4 Cl:    0.176743
   5 H :   -0.024764
   6 H :   -0.028933
   7 H :   -0.028944
   8 H :   -0.024765
   9 H :   -0.028946
  10 H :   -0.028936
  11 C :    0.122962
  12 C :    0.127192
  13 C :    0.122958
  14 H :   -0.027515
  15 H :   -0.032750
  16 H :   -0.033928
  17 H :   -0.023879
  18 H :   -0.032719
  19 H :   -0.032720
  20 H :   -0.027519
  21 H :   -0.033927
  22 H :   -0.032747

  Mayer bond orders larger than 0.1
B(  0-C ,  1-C ) :   0.9647 B(  0-C , 11-C ) :   0.9510 B(  0-C , 12-C ) :   0.9410
B(  0-C , 13-C ) :   0.9510 B(  1-C ,  2-C ) :   0.9390 B(  1-C ,  3-C ) :   0.9390
B(  1-C ,  4-Cl) :   0.9420 B(  2-C ,  5-H ) :   0.9814 B(  2-C ,  6-H ) :   0.9800
B(  2-C ,  7-H ) :   0.9754 B(  3-C ,  8-H ) :   0.9814 B(  3-C ,  9-H ) :   0.9754
B(  3-C , 10-H ) :   0.9800 B( 11-C , 14-H ) :   0.9850 B( 11-C , 15-H ) :   0.9740
B( 11-C , 16-H ) :   0.9847 B( 12-C , 17-H ) :   0.9828 B( 12-C , 18-H ) :   0.9830
B( 12-C , 19-H ) :   0.9830 B( 13-C , 20-H ) :   0.9850 B( 13-C , 21-H ) :   0.9847
B( 13-C , 22-H ) :   0.9740

E(0)                                       ...   -733.427250303
E(0)                                       ...   -733.427250303
E(CORR)(strong-pairs)                      ...     -1.522949665
E(CORR)(weak-pairs)                        ...     -0.001636655
E(CORR)(corrected)                         ...     -1.524586320
E(TOT)                                     ...   -734.951836623
E(CCSD(T))                                 ...   -735.013323737
FINAL SINGLE POINT ENERGY      -735.013323737269

DIPOLE MOMENT
-------------
                                X             Y             Z
Electronic contribution:     11.46213      -6.05818       0.00008
Nuclear contribution   :    -12.14046       6.73958      -0.00008
                        -----------------------------------------
Total Dipole Moment    :     -0.67833       0.68140      -0.00000
                        -----------------------------------------
Magnitude (a.u.)       :      0.96148
Magnitude (Debye)      :      2.44388

Rotational constants in cm-1:     0.067848     0.046333     0.042480
Rotational constants in MHz :  2034.042210  1389.040686  1273.525516

                             ****ORCA TERMINATED NORMALLY****
TOTAL RUN TIME: 0 days 0 hours 29 minutes 11 seconds 770 msec
