                         Program Version 4.1.x  -  STABLE  -
|  1> ! RHF DLPNO-CCSD(T) cc-pVTZ RIJK cc-pVTZ/JK cc-pVTZ/C
|  2> ! KDIIS SOSCF TightSCF TightPNO
|  3>
|  4> %pal nprocs 16 end
|  5>
|  6> %maxcore 7000
|  7>
|  8> %scf maxiter 300
|  9>      shift shift 0.2 erroff 0.1 end
| 10> end
| 11>
| 12> * xyzfile 0 1 tetraBn-ethene-C1-C1-syn.xyz
| 13>
| 14>
| 15>                          ****END OF INPUT****

CARTESIAN COORDINATES (ANGSTROEM)
---------------------------------
  C     -0.505310    0.140010    0.393840
  C      0.526580   -0.180870   -0.420420
  C      1.303070    0.853850   -1.227180
  C      2.458560    1.587880   -0.546840
  C      0.962060   -1.621590   -0.674420
  C      2.396610   -1.943870   -0.279330
  C     -1.288630   -0.891320    1.198420
  C     -2.471140   -1.585050    0.522650
  C     -0.930830    1.581960    0.652690
  C     -2.370910    1.913930    0.286610
  C      2.607910    1.665260    0.842400
  C      3.393800    2.258690   -1.351820
  C      4.442050    2.986890   -0.788480
  C      3.658090    2.392850    1.412710
  C      4.578380    3.058060    0.601600
  C      3.382620   -2.170320   -1.248100
  C      2.758460   -2.047460    1.072740
  C      4.065200   -2.364830    1.444990
  C      4.695280   -2.484280   -0.881760
  C      5.041230   -2.582250    0.467060
  C     -3.488850   -2.124220    1.325510
  C     -2.561230   -1.761390   -0.863440
  C     -3.631000   -2.460810   -1.431070
  C     -4.558350   -2.823810    0.764580
  C     -4.633010   -2.997380   -0.620760
  C     -2.783890    1.929310   -1.054550
  C     -3.309120    2.244580    1.272760
  C     -4.624870    2.576790    0.934460
  C     -4.094000    2.263330   -1.399020
  C     -5.021930    2.587080   -0.403700
  H      1.709060    0.359480   -2.117980
  H      0.610890    1.612420   -1.614120
  H      0.290330   -2.321360   -0.172490
  H      0.851680   -1.822580   -1.749060
  H     -0.607610   -1.672690    1.558540
  H     -1.667550   -0.403590    2.104390
  H     -0.798210    1.783430    1.724710
  H     -0.264250    2.278230    0.138610
  H      1.906580    1.144000    1.485470
  H      3.299750    2.206610   -2.434610
  H      5.153760    3.494930   -1.433490
  H      3.755880    2.434300    2.494150
  H      5.394460    3.621780    1.044380
  H      3.121390   -2.106650   -2.301930
  H      2.008260   -1.877120    1.841180
  H      4.322980   -2.442170    2.497680
  H      5.443900   -2.654110   -1.650640
  H      6.059280   -2.827730    0.755210
  H     -3.443920   -1.990660    2.404270
  H     -1.797300   -1.338730   -1.507630
  H     -3.680410   -2.581650   -2.509880
  H     -5.334840   -3.228390    1.408020
  H     -5.464900   -3.539000   -1.061690
  H     -2.072340    1.673810   -1.835870
  H     -3.007020    2.248160    2.317640
  H     -5.335910    2.828070    1.716620
  H     -4.392470    2.269570   -2.443730
  H     -6.042650    2.845370   -0.670440

 Total Charge           Charge          ....    0
 Multiplicity           Mult            ....    1
 Number of Electrons    NEL             ....  208
 Basis Dimension        Dim             .... 1292

ORBITAL ENERGIES
----------------

  NO   OCC          E(Eh)            E(eV)
   0   2.0000     -11.240325      -305.8648
   1   2.0000     -11.240273      -305.8634
   2   2.0000     -11.240249      -305.8627
   3   2.0000     -11.240030      -305.8568
   4   2.0000     -11.239456      -305.8411
   5   2.0000     -11.238493      -305.8149
   6   2.0000     -11.235509      -305.7337
   7   2.0000     -11.235459      -305.7324
   8   2.0000     -11.233825      -305.6879
   9   2.0000     -11.232909      -305.6630
  10   2.0000     -11.232485      -305.6515
  11   2.0000     -11.232250      -305.6451
  12   2.0000     -11.231740      -305.6312
  13   2.0000     -11.231516      -305.6251
  14   2.0000     -11.230322      -305.5926
  15   2.0000     -11.230305      -305.5921
  16   2.0000     -11.229780      -305.5778
  17   2.0000     -11.229512      -305.5705
  18   2.0000     -11.229428      -305.5683
  19   2.0000     -11.229161      -305.5610
  20   2.0000     -11.228766      -305.5503
  21   2.0000     -11.228752      -305.5499
  22   2.0000     -11.228484      -305.5426
  23   2.0000     -11.227830      -305.5248
  24   2.0000     -11.226684      -305.4936
  25   2.0000     -11.226610      -305.4916
  26   2.0000     -11.226484      -305.4882
  27   2.0000     -11.226329      -305.4839
  28   2.0000     -11.224492      -305.4339
  29   2.0000     -11.224131      -305.4241
  30   2.0000      -1.157611       -31.5002
  31   2.0000      -1.148897       -31.2631
  32   2.0000      -1.144986       -31.1566
  33   2.0000      -1.144469       -31.1426
  34   2.0000      -1.112752       -30.2795
  35   2.0000      -1.059633       -28.8341
  36   2.0000      -1.039761       -28.2933
  37   2.0000      -1.032724       -28.1018
  38   2.0000      -1.008634       -27.4463
  39   2.0000      -1.007528       -27.4162
  40   2.0000      -1.006490       -27.3880
  41   2.0000      -1.004890       -27.3444
  42   2.0000      -1.003123       -27.2964
  43   2.0000      -0.965872       -26.2827
  44   2.0000      -0.934293       -25.4234
  45   2.0000      -0.916059       -24.9272
  46   2.0000      -0.875571       -23.8255
  47   2.0000      -0.822552       -22.3828
  48   2.0000      -0.821306       -22.3489
  49   2.0000      -0.819997       -22.3132
  50   2.0000      -0.817086       -22.2340
  51   2.0000      -0.806227       -21.9385
  52   2.0000      -0.796269       -21.6676
  53   2.0000      -0.788708       -21.4618
  54   2.0000      -0.784881       -21.3577
  55   2.0000      -0.704795       -19.1784
  56   2.0000      -0.688535       -18.7360
  57   2.0000      -0.688269       -18.7288
  58   2.0000      -0.687494       -18.7077
  59   2.0000      -0.677936       -18.4476
  60   2.0000      -0.657286       -17.8857
  61   2.0000      -0.639575       -17.4037
  62   2.0000      -0.635570       -17.2947
  63   2.0000      -0.633550       -17.2398
  64   2.0000      -0.626644       -17.0519
  65   2.0000      -0.625636       -17.0244
  66   2.0000      -0.618901       -16.8412
  67   2.0000      -0.617492       -16.8028
  68   2.0000      -0.615609       -16.7516
  69   2.0000      -0.588952       -16.0262
  70   2.0000      -0.582253       -15.8439
  71   2.0000      -0.580082       -15.7848
  72   2.0000      -0.578699       -15.7472
  73   2.0000      -0.577104       -15.7038
  74   2.0000      -0.571264       -15.5449
  75   2.0000      -0.566075       -15.4037
  76   2.0000      -0.561544       -15.2804
  77   2.0000      -0.556341       -15.1388
  78   2.0000      -0.549775       -14.9601
  79   2.0000      -0.537928       -14.6378
  80   2.0000      -0.525669       -14.3042
  81   2.0000      -0.520110       -14.1529
  82   2.0000      -0.505599       -13.7581
  83   2.0000      -0.496458       -13.5093
  84   2.0000      -0.491751       -13.3812
  85   2.0000      -0.490708       -13.3528
  86   2.0000      -0.486451       -13.2370
  87   2.0000      -0.485765       -13.2183
  88   2.0000      -0.482701       -13.1349
  89   2.0000      -0.481914       -13.1136
  90   2.0000      -0.480177       -13.0663
  91   2.0000      -0.476799       -12.9744
  92   2.0000      -0.476741       -12.9728
  93   2.0000      -0.473251       -12.8778
  94   2.0000      -0.453058       -12.3283
  95   2.0000      -0.345136        -9.3916
  96   2.0000      -0.335185        -9.1208
  97   2.0000      -0.332402        -9.0451
  98   2.0000      -0.328385        -8.9358
  99   2.0000      -0.327863        -8.9216
 100   2.0000      -0.325046        -8.8449
 101   2.0000      -0.324653        -8.8343
 102   2.0000      -0.313094        -8.5197
 103   2.0000      -0.311707        -8.4820
 104   0.0000       0.113241         3.0814
 105   0.0000       0.118533         3.2255
 106   0.0000       0.119210         3.2439
 107   0.0000       0.123533         3.3615
 108   0.0000       0.129837         3.5331

MULLIKEN ATOMIC CHARGES
-----------------------
   0 C :   -0.066474
   1 C :   -0.053433
   2 C :   -0.219535
   3 C :    0.096784
   4 C :   -0.252431
   5 C :    0.087624
   6 C :   -0.220161
   7 C :    0.109319
   8 C :   -0.239091
   9 C :    0.084280
  10 C :   -0.188210
  11 C :   -0.187101
  12 C :   -0.134936
  13 C :   -0.152347
  14 C :   -0.172954
  15 C :   -0.179790
  16 C :   -0.210486
  17 C :   -0.128447
  18 C :   -0.133639
  19 C :   -0.168529
  20 C :   -0.182681
  21 C :   -0.205531
  22 C :   -0.154835
  23 C :   -0.134667
  24 C :   -0.172119
  25 C :   -0.208585
  26 C :   -0.180003
  27 C :   -0.132726
  28 C :   -0.127643
  29 C :   -0.168663
  30 H :    0.116598
  31 H :    0.128300
  32 H :    0.150834
  33 H :    0.127969
  34 H :    0.126593
  35 H :    0.114893
  36 H :    0.125601
  37 H :    0.149624
  38 H :    0.157212
  39 H :    0.138333
  40 H :    0.147827
  41 H :    0.145857
  42 H :    0.148749
  43 H :    0.141910
  44 H :    0.153294
  45 H :    0.147227
  46 H :    0.147873
  47 H :    0.149244
  48 H :    0.137543
  49 H :    0.161346
  50 H :    0.145903
  51 H :    0.147720
  52 H :    0.148840
  53 H :    0.152260
  54 H :    0.142302
  55 H :    0.147765
  56 H :    0.146456
  57 H :    0.148941
Sum of atomic charges:   -0.0000000

LOEWDIN ATOMIC CHARGES
----------------------
   0 C :   -0.024368
   1 C :   -0.025066
   2 C :    0.062919
   3 C :   -0.030698
   4 C :    0.063894
   5 C :   -0.032018
   6 C :    0.064092
   7 C :   -0.029531
   8 C :    0.065415
   9 C :   -0.032144
  10 C :    0.033844
  11 C :    0.029887
  12 C :    0.026432
  13 C :    0.027319
  14 C :    0.019171
  15 C :    0.029113
  16 C :    0.035204
  17 C :    0.029665
  18 C :    0.029588
  19 C :    0.023394
  20 C :    0.030659
  21 C :    0.032911
  22 C :    0.026692
  23 C :    0.027054
  24 C :    0.019432
  25 C :    0.036461
  26 C :    0.027988
  27 C :    0.028580
  28 C :    0.030260
  29 C :    0.023100
  30 H :   -0.012560
  31 H :   -0.016354
  32 H :   -0.012953
  33 H :   -0.013141
  34 H :   -0.017059
  35 H :   -0.012192
  36 H :   -0.012749
  37 H :   -0.012265
  38 H :   -0.029878
  39 H :   -0.026043
  40 H :   -0.025942
  41 H :   -0.026153
  42 H :   -0.028160
  43 H :   -0.028368
  44 H :   -0.027318
  45 H :   -0.025509
  46 H :   -0.025411
  47 H :   -0.027113
  48 H :   -0.026339
  49 H :   -0.029415
  50 H :   -0.026250
  51 H :   -0.025885
  52 H :   -0.028121
  53 H :   -0.027211
  54 H :   -0.028385
  55 H :   -0.025720
  56 H :   -0.025490
  57 H :   -0.027261

  Mayer bond orders larger than 0.1
B(  0-C ,  1-C ) :   1.8058 B(  0-C ,  6-C ) :   0.9945 B(  0-C ,  8-C ) :   0.9345
B(  1-C ,  2-C ) :   1.0000 B(  1-C ,  4-C ) :   0.9323 B(  2-C ,  3-C ) :   1.0081
B(  2-C , 30-H ) :   0.9795 B(  2-C , 31-H ) :   0.9672 B(  3-C , 10-C ) :   1.3686
B(  3-C , 11-C ) :   1.3570 B(  4-C ,  5-C ) :   0.9751 B(  4-C , 32-H ) :   0.9878
B(  4-C , 33-H ) :   0.9933 B(  5-C , 15-C ) :   1.3743 B(  5-C , 16-C ) :   1.3552
B(  6-C ,  7-C ) :   1.0047 B(  6-C , 34-H ) :   0.9684 B(  6-C , 35-H ) :   0.9825
B(  7-C , 20-C ) :   1.3611 B(  7-C , 21-C ) :   1.3641 B(  8-C ,  9-C ) :   0.9731
B(  8-C , 36-H ) :   0.9928 B(  8-C , 37-H ) :   0.9864 B(  9-C , 25-C ) :   1.3566
B(  9-C , 26-C ) :   1.3752 B( 10-C , 13-C ) :   1.3794 B( 10-C , 38-H ) :   0.9634
B( 11-C , 12-C ) :   1.4028 B( 11-C , 39-H ) :   0.9787 B( 12-C , 14-C ) :   1.3629
B( 12-C , 40-H ) :   0.9783 B( 13-C , 14-C ) :   1.3890 B( 13-C , 41-H ) :   0.9795
B( 14-C , 42-H ) :   0.9792 B( 15-C , 18-C ) :   1.3789 B( 15-C , 43-H ) :   0.9769
B( 16-C , 17-C ) :   1.3946 B( 16-C , 44-H ) :   0.9720 B( 17-C , 19-C ) :   1.3646
B( 17-C , 45-H ) :   0.9797 B( 18-C , 19-C ) :   1.3905 B( 18-C , 46-H ) :   0.9787
B( 19-C , 47-H ) :   0.9784 B( 20-C , 23-C ) :   1.3976 B( 20-C , 48-H ) :   0.9782
B( 21-C , 22-C ) :   1.3829 B( 21-C , 49-H ) :   0.9632 B( 22-C , 24-C ) :   1.3852
B( 22-C , 50-H ) :   0.9800 B( 23-C , 24-C ) :   1.3677 B( 23-C , 51-H ) :   0.9784
B( 24-C , 52-H ) :   0.9791 B( 25-C , 28-C ) :   1.3943 B( 25-C , 53-H ) :   0.9718
B( 26-C , 27-C ) :   1.3775 B( 26-C , 54-H ) :   0.9758 B( 27-C , 29-C ) :   1.3909
B( 27-C , 55-H ) :   0.9788 B( 28-C , 29-C ) :   1.3643 B( 28-C , 56-H ) :   0.9798
B( 29-C , 57-H ) :   0.9786

E(0)                                       ...  -1152.701286520
E(0)                                       ...  -1152.701286520
E(CORR)(strong-pairs)                      ...     -4.890317882
E(CORR)(weak-pairs)                        ...     -0.010922587
E(CORR)(corrected)                         ...     -4.901240469
E(TOT)                                     ...  -1157.602526988
E(CCSD(T))                                 ...  -1157.855363831
FINAL SINGLE POINT ENERGY     -1157.855363830792

DIPOLE MOMENT
-------------
                                X             Y             Z
Electronic contribution:     -0.01202      -0.00201       0.01215
Nuclear contribution   :      0.01895      -0.00628      -0.01277
                        -----------------------------------------
Total Dipole Moment    :      0.00693      -0.00829      -0.00062
                        -----------------------------------------
Magnitude (a.u.)       :      0.01083
Magnitude (Debye)      :      0.02752

Rotational constants in cm-1:     0.007618     0.003444     0.002691
Rotational constants in MHz :   228.384080   103.256947    80.680992

                             ****ORCA TERMINATED NORMALLY****
TOTAL RUN TIME: 0 days 11 hours 43 minutes 44 seconds 307 msec
