                         Program Version 4.1.x  -  STABLE  -
|  1> ! RHF DLPNO-CCSD(T) cc-pVTZ RIJK cc-pVTZ/JK cc-pVTZ/C
|  2> ! KDIIS SOSCF TightSCF TightPNO
|  3>
|  4> %pal nprocs 16 end
|  5>
|  6> %maxcore 7000
|  7>
|  8> %scf maxiter 300
|  9>      shift shift 0.2 erroff 0.1 end
| 10> end
| 11>
| 12> * xyzfile 0 1 tetraBn_ethene_C1_C2_syn.xyz
| 13>
| 14>
| 15>                          ****END OF INPUT****

CARTESIAN COORDINATES (ANGSTROEM)
---------------------------------
  C     -3.603110   -3.658580    2.229770
  C     -4.297850   -2.447790    2.186540
  C     -3.626430   -1.265000    1.861790
  C     -2.253780   -1.267300    1.576950
  C     -1.568110   -2.491240    1.621090
  C     -2.234010   -3.675290    1.945870
  C     -1.523840    0.034310    1.264870
  C     -0.676300   -0.000230   -0.000200
  C     -1.523670   -0.034840   -1.265390
  C     -2.253780    1.266680   -1.577410
  C     -3.626500    1.264280   -1.861900
  C     -4.298070    2.447010   -2.186590
  C     -3.603420    3.657830   -2.230080
  C     -2.234260    3.674650   -1.946510
  C     -1.568200    2.490670   -1.621800
  C      0.676030   -0.000070   -0.000100
  C      1.523580    0.035000   -1.265130
  C      2.254160   -1.266220   -1.577340
  C      3.626750   -1.263170   -1.862460
  C      4.298730   -2.445590   -2.187400
  C      3.604640   -3.656750   -2.230500
  C      2.235620   -3.674220   -1.946300
  C      1.569150   -2.490530   -1.621360
  C      1.523370   -0.034860    1.265090
  C      2.253220    1.266700    1.577580
  C      1.567630    2.490700    1.621340
  C      2.233430    3.674690    1.946570
  C      3.602350    3.657850    2.231310
  C      4.297010    2.447010    2.188450
  C      3.625700    1.264280    1.863240
  H      0.922620   -0.321530    2.132930
  H      2.273580   -0.827220    1.150300
  H      0.922850    0.321270   -2.133120
  H      2.273370    0.827750   -1.150280
  H     -0.922880   -0.321140   -2.133320
  H     -2.273720   -0.827380   -1.150790
  H     -0.923220    0.320770    2.132870
  H     -2.274000    0.826730    1.150120
  H      0.505350    2.516880    1.394020
  H      4.174710    0.326080    1.832540
  H      5.361300    2.420550    2.405680
  H      1.682820    4.610980    1.977130
  H      4.120740    4.578690    2.482580
  H      4.175310   -0.324710   -1.831580
  H      0.506790   -2.517200   -1.394480
  H      1.685460   -4.610760   -1.977060
  H      5.363100   -2.418650   -2.404210
  H      4.123560   -4.577360   -2.481550
  H     -4.175490    0.326080   -1.830750
  H     -0.505740    2.516850   -1.395390
  H     -1.683660    4.610930   -1.977590
  H     -5.362550    2.420550   -2.402910
  H     -4.122000    4.578670   -2.480960
  H     -0.505700   -2.517310    1.394450
  H     -4.175490   -0.326830    1.830820
  H     -5.362270   -2.421440    2.403130
  H     -1.683350   -4.611530    1.976750
  H     -4.121580   -4.579470    2.480700

 Total Charge           Charge          ....    0
 Multiplicity           Mult            ....    1
 Number of Electrons    NEL             ....  208
 Basis Dimension        Dim             .... 1292

ORBITAL ENERGIES
----------------

  NO   OCC          E(Eh)            E(eV)
   0   2.0000     -11.242841      -305.9333
   1   2.0000     -11.242840      -305.9332
   2   2.0000     -11.242838      -305.9332
   3   2.0000     -11.242836      -305.9331
   4   2.0000     -11.239642      -305.8462
   5   2.0000     -11.238093      -305.8041
   6   2.0000     -11.235229      -305.7261
   7   2.0000     -11.235228      -305.7261
   8   2.0000     -11.235226      -305.7260
   9   2.0000     -11.235224      -305.7260
  10   2.0000     -11.235025      -305.7206
  11   2.0000     -11.235024      -305.7205
  12   2.0000     -11.235022      -305.7205
  13   2.0000     -11.235020      -305.7204
  14   2.0000     -11.232399      -305.6491
  15   2.0000     -11.232389      -305.6488
  16   2.0000     -11.232353      -305.6479
  17   2.0000     -11.232347      -305.6477
  18   2.0000     -11.231835      -305.6338
  19   2.0000     -11.231834      -305.6338
  20   2.0000     -11.231832      -305.6337
  21   2.0000     -11.231830      -305.6336
  22   2.0000     -11.231100      -305.6138
  23   2.0000     -11.231099      -305.6137
  24   2.0000     -11.231097      -305.6137
  25   2.0000     -11.231094      -305.6136
  26   2.0000     -11.229993      -305.5836
  27   2.0000     -11.229989      -305.5835
  28   2.0000     -11.229988      -305.5835
  29   2.0000     -11.229986      -305.5834
  30   2.0000      -1.160165       -31.5697
  31   2.0000      -1.151907       -31.3450
  32   2.0000      -1.149063       -31.2676
  33   2.0000      -1.148595       -31.2549
  34   2.0000      -1.114141       -30.3173
  35   2.0000      -1.063580       -28.9415
  36   2.0000      -1.041334       -28.3361
  37   2.0000      -1.035562       -28.1791
  38   2.0000      -1.011537       -27.5253
  39   2.0000      -1.009870       -27.4799
  40   2.0000      -1.009724       -27.4760
  41   2.0000      -1.009595       -27.4725
  42   2.0000      -1.006098       -27.3773
  43   2.0000      -0.965846       -26.2820
  44   2.0000      -0.936564       -25.4852
  45   2.0000      -0.917380       -24.9632
  46   2.0000      -0.876558       -23.8524
  47   2.0000      -0.824224       -22.4283
  48   2.0000      -0.824167       -22.4267
  49   2.0000      -0.823726       -22.4147
  50   2.0000      -0.822265       -22.3750
  51   2.0000      -0.806094       -21.9349
  52   2.0000      -0.801793       -21.8179
  53   2.0000      -0.794195       -21.6111
  54   2.0000      -0.784978       -21.3604
  55   2.0000      -0.704738       -19.1769
  56   2.0000      -0.695975       -18.9384
  57   2.0000      -0.692824       -18.8527
  58   2.0000      -0.689054       -18.7501
  59   2.0000      -0.674572       -18.3560
  60   2.0000      -0.661014       -17.9871
  61   2.0000      -0.642519       -17.4838
  62   2.0000      -0.638356       -17.3705
  63   2.0000      -0.635450       -17.2915
  64   2.0000      -0.631599       -17.1867
  65   2.0000      -0.630772       -17.1642
  66   2.0000      -0.624741       -17.0001
  67   2.0000      -0.620971       -16.8975
  68   2.0000      -0.619638       -16.8612
  69   2.0000      -0.588708       -16.0196
  70   2.0000      -0.584925       -15.9166
  71   2.0000      -0.582602       -15.8534
  72   2.0000      -0.581425       -15.8214
  73   2.0000      -0.578009       -15.7284
  74   2.0000      -0.576676       -15.6922
  75   2.0000      -0.566542       -15.4164
  76   2.0000      -0.564621       -15.3641
  77   2.0000      -0.558986       -15.2108
  78   2.0000      -0.544928       -14.8283
  79   2.0000      -0.541923       -14.7465
  80   2.0000      -0.527020       -14.3410
  81   2.0000      -0.515948       -14.0397
  82   2.0000      -0.513075       -13.9615
  83   2.0000      -0.495237       -13.4761
  84   2.0000      -0.493384       -13.4257
  85   2.0000      -0.492626       -13.4050
  86   2.0000      -0.492610       -13.4046
  87   2.0000      -0.487831       -13.2745
  88   2.0000      -0.484614       -13.1870
  89   2.0000      -0.484155       -13.1745
  90   2.0000      -0.483370       -13.1532
  91   2.0000      -0.479681       -13.0528
  92   2.0000      -0.479620       -13.0511
  93   2.0000      -0.475503       -12.9391
  94   2.0000      -0.455734       -12.4011
  95   2.0000      -0.347011        -9.4426
  96   2.0000      -0.335753        -9.1363
  97   2.0000      -0.334746        -9.1089
  98   2.0000      -0.333418        -9.0728
  99   2.0000      -0.330297        -8.9878
 100   2.0000      -0.326989        -8.8978
 101   2.0000      -0.326711        -8.8903
 102   2.0000      -0.325286        -8.8515
 103   2.0000      -0.318488        -8.6665
 104   0.0000       0.112985         3.0745
 105   0.0000       0.117079         3.1859
 106   0.0000       0.118934         3.2364
 107   0.0000       0.123645         3.3645
 108   0.0000       0.127106         3.4587

MULLIKEN ATOMIC CHARGES
-----------------------
   0 C :   -0.171968
   1 C :   -0.138878
   2 C :   -0.171102
   3 C :    0.053552
   4 C :   -0.208159
   5 C :   -0.148980
   6 C :   -0.218792
   7 C :   -0.071938
   8 C :   -0.218807
   9 C :    0.053557
  10 C :   -0.171094
  11 C :   -0.138874
  12 C :   -0.171967
  13 C :   -0.148969
  14 C :   -0.208184
  15 C :   -0.072130
  16 C :   -0.218740
  17 C :    0.053490
  18 C :   -0.171103
  19 C :   -0.138869
  20 C :   -0.171961
  21 C :   -0.148981
  22 C :   -0.208112
  23 C :   -0.218746
  24 C :    0.053549
  25 C :   -0.208153
  26 C :   -0.148987
  27 C :   -0.171969
  28 C :   -0.138871
  29 C :   -0.171111
  30 H :    0.132423
  31 H :    0.132459
  32 H :    0.132429
  33 H :    0.132455
  34 H :    0.132452
  35 H :    0.132467
  36 H :    0.132449
  37 H :    0.132466
  38 H :    0.170182
  39 H :    0.151210
  40 H :    0.150974
  41 H :    0.151538
  42 H :    0.151527
  43 H :    0.151210
  44 H :    0.170163
  45 H :    0.151540
  46 H :    0.150972
  47 H :    0.151522
  48 H :    0.151220
  49 H :    0.170170
  50 H :    0.151537
  51 H :    0.150973
  52 H :    0.151527
  53 H :    0.170173
  54 H :    0.151213
  55 H :    0.150977
  56 H :    0.151540
  57 H :    0.151526
Sum of atomic charges:   -0.0000000

LOEWDIN ATOMIC CHARGES
----------------------
   0 C :    0.020260
   1 C :    0.027212
   2 C :    0.027647
   3 C :   -0.032619
   4 C :    0.030965
   5 C :    0.027460
   6 C :    0.068241
   7 C :   -0.026027
   8 C :    0.068245
   9 C :   -0.032622
  10 C :    0.027649
  11 C :    0.027210
  12 C :    0.020254
  13 C :    0.027456
  14 C :    0.030971
  15 C :   -0.026041
  16 C :    0.068235
  17 C :   -0.032621
  18 C :    0.027653
  19 C :    0.027210
  20 C :    0.020252
  21 C :    0.027457
  22 C :    0.030960
  23 C :    0.068239
  24 C :   -0.032620
  25 C :    0.030959
  26 C :    0.027456
  27 C :    0.020253
  28 C :    0.027211
  29 C :    0.027655
  30 H :   -0.017876
  31 H :   -0.009938
  32 H :   -0.017877
  33 H :   -0.009938
  34 H :   -0.017875
  35 H :   -0.009937
  36 H :   -0.017871
  37 H :   -0.009935
  38 H :   -0.025463
  39 H :   -0.025565
  40 H :   -0.025176
  41 H :   -0.024906
  42 H :   -0.027217
  43 H :   -0.025563
  44 H :   -0.025465
  45 H :   -0.024908
  46 H :   -0.025172
  47 H :   -0.027214
  48 H :   -0.025566
  49 H :   -0.025466
  50 H :   -0.024904
  51 H :   -0.025173
  52 H :   -0.027215
  53 H :   -0.025470
  54 H :   -0.025564
  55 H :   -0.025178
  56 H :   -0.024910
  57 H :   -0.027217

  Mayer bond orders larger than 0.1
B(  0-C ,  1-C ) :   1.3824 B(  0-C ,  5-C ) :   1.3667 B(  0-C , 57-H ) :   0.9783
B(  1-C ,  2-C ) :   1.3808 B(  1-C , 55-H ) :   0.9782 B(  2-C ,  3-C ) :   1.3741
B(  2-C , 54-H ) :   0.9710 B(  3-C ,  4-C ) :   1.3656 B(  3-C ,  6-C ) :   0.9728
B(  4-C ,  5-C ) :   1.3950 B(  4-C , 53-H ) :   0.9627 B(  5-C , 56-H ) :   0.9793
B(  6-C ,  7-C ) :   0.9607 B(  6-C , 36-H ) :   0.9851 B(  6-C , 37-H ) :   0.9873
B(  7-C ,  8-C ) :   0.9607 B(  7-C , 15-C ) :   1.7836 B(  8-C ,  9-C ) :   0.9727
B(  8-C , 34-H ) :   0.9851 B(  8-C , 35-H ) :   0.9873 B(  9-C , 10-C ) :   1.3742
B(  9-C , 14-C ) :   1.3656 B( 10-C , 11-C ) :   1.3808 B( 10-C , 48-H ) :   0.9710
B( 11-C , 12-C ) :   1.3824 B( 11-C , 51-H ) :   0.9783 B( 12-C , 13-C ) :   1.3667
B( 12-C , 52-H ) :   0.9783 B( 13-C , 14-C ) :   1.3950 B( 13-C , 50-H ) :   0.9793
B( 14-C , 49-H ) :   0.9628 B( 15-C , 16-C ) :   0.9607 B( 15-C , 23-C ) :   0.9608
B( 16-C , 17-C ) :   0.9728 B( 16-C , 32-H ) :   0.9851 B( 16-C , 33-H ) :   0.9873
B( 17-C , 18-C ) :   1.3742 B( 17-C , 22-C ) :   1.3656 B( 18-C , 19-C ) :   1.3808
B( 18-C , 43-H ) :   0.9710 B( 19-C , 20-C ) :   1.3824 B( 19-C , 46-H ) :   0.9783
B( 20-C , 21-C ) :   1.3667 B( 20-C , 47-H ) :   0.9783 B( 21-C , 22-C ) :   1.3949
B( 21-C , 45-H ) :   0.9793 B( 22-C , 44-H ) :   0.9627 B( 23-C , 24-C ) :   0.9728
B( 23-C , 30-H ) :   0.9851 B( 23-C , 31-H ) :   0.9873 B( 24-C , 25-C ) :   1.3656
B( 24-C , 29-C ) :   1.3742 B( 25-C , 26-C ) :   1.3950 B( 25-C , 38-H ) :   0.9627
B( 26-C , 27-C ) :   1.3667 B( 26-C , 41-H ) :   0.9793 B( 27-C , 28-C ) :   1.3824
B( 27-C , 42-H ) :   0.9783 B( 28-C , 29-C ) :   1.3808 B( 28-C , 40-H ) :   0.9783
B( 29-C , 39-H ) :   0.9710

E(0)                                       ...  -1152.712305198
E(0)                                       ...  -1152.712305198
E(CORR)(strong-pairs)                      ...     -4.886369246
E(CORR)(weak-pairs)                        ...     -0.011560672
E(CORR)(corrected)                         ...     -4.897929918
E(TOT)                                     ...  -1157.610235116
E(CCSD(T))                                 ...  -1157.862450449
FINAL SINGLE POINT ENERGY     -1157.862450449202

DIPOLE MOMENT
-------------
                                X             Y             Z
Electronic contribution:      0.00005      -0.00021      -0.00007
Nuclear contribution   :     -0.00011       0.00023       0.00003
                        -----------------------------------------
Total Dipole Moment    :     -0.00006       0.00003      -0.00003
                        -----------------------------------------
Magnitude (a.u.)       :      0.00007
Magnitude (Debye)      :      0.00019

Rotational constants in cm-1:     0.004812     0.003824     0.003114
Rotational constants in MHz :   144.255765   114.643628    93.358427

                             ****ORCA TERMINATED NORMALLY****
TOTAL RUN TIME: 0 days 10 hours 45 minutes 11 seconds 633 msec
