                         Program Version 4.1.x  -  STABLE  -
|  1> ! RHF DLPNO-CCSD(T) cc-pVTZ RIJK cc-pVTZ/JK cc-pVTZ/C
|  2> ! KDIIS SOSCF TightSCF TightPNO
|  3>
|  4> %pal nprocs 16 end
|  5>
|  6> %maxcore 7000
|  7>
|  8> %scf maxiter 300
|  9>      shift shift 0.2 erroff 0.1 end
| 10> end
| 11>
| 12> * xyzfile 0 1 tgctgr180180.xyz
| 13>
| 14>
| 15>                          ****END OF INPUT****

CARTESIAN COORDINATES (ANGSTROEM)
---------------------------------
  C     -3.535500    0.230900    0.002700
  H     -4.140500   -0.218700    0.805100
  O     -4.367800    1.041100   -0.830200
  C     -2.877800   -0.889300   -0.791700
  C     -2.462800    1.124300    0.637200
  C     -3.042700    2.210100    1.548700
  H     -1.868300    1.604000   -0.148900
  O     -1.612400    0.303700    1.464100
  O     -3.924100   -1.716300   -1.300700
  C     -1.926600   -1.671400    0.109200
  H     -2.308800   -0.452500   -1.624700
  H     -2.514200   -2.132100    0.918200
  C     -0.920100   -0.719400    0.798100
  O     -1.330600   -2.682800   -0.695300
  O     -0.006800   -0.079600   -0.100300
  H     -0.368100   -1.250900    1.576300
  C      0.942400   -0.778600   -0.898200
  H      0.440100   -1.332100   -1.694400
  O      1.715400    0.204400   -1.547600
  C      1.903600   -1.703800   -0.123800
  C      2.489500    1.056100   -0.682600
  O      1.189500   -2.756200    0.534300
  C      2.739500   -0.901000    0.862900
  H      2.572600   -2.144500   -0.876100
  H      2.086500   -0.442200    1.618200
  O      3.627700   -1.826000    1.490900
  H      1.828100    1.597500    0.003600
  C      3.166600    2.040500   -1.633800
  C      3.487300    0.213900    0.136100
  O      4.155200    0.966100    1.142000
  H      4.218200   -0.242900   -0.551200
  H     -3.739200    1.753700    2.269400
  O     -3.664600    3.252100    0.812100
  H     -2.224200    2.663700    2.113900
  O      4.025900    2.885000   -0.853700
  H      2.398700    2.629600   -2.148500
  H      3.744400    1.481000   -2.381700
  H     -4.275000    2.844400    0.177700
  H      4.463400    3.524000   -1.429100
  H     -0.595300   -3.094000   -0.208600
  H     -3.515700   -2.476300   -1.739500
  H     -4.962900    0.450400   -1.314800
  H      1.824200   -3.217200    1.104400
  H      4.201200   -1.326700    2.090000
  H      4.494900    1.777200    0.729200

 Total Charge           Charge          ....    0
 Multiplicity           Mult            ....    1
 Number of Electrons    NEL             ....  182
 Basis Dimension        Dim             ....  998

ORBITAL ENERGIES
----------------

  NO   OCC          E(Eh)            E(eV)
   0   2.0000     -20.587341      -560.2100
   1   2.0000     -20.585975      -560.1728
   2   2.0000     -20.580795      -560.0319
   3   2.0000     -20.572966      -559.8189
   4   2.0000     -20.572478      -559.8056
   5   2.0000     -20.572003      -559.7927
   6   2.0000     -20.567633      -559.6738
   7   2.0000     -20.564024      -559.5755
   8   2.0000     -20.563963      -559.5739
   9   2.0000     -20.559892      -559.4631
  10   2.0000     -20.534052      -558.7600
  11   2.0000     -11.354152      -308.9622
  12   2.0000     -11.348522      -308.8090
  13   2.0000     -11.304391      -307.6081
  14   2.0000     -11.298450      -307.4465
  15   2.0000     -11.297583      -307.4229
  16   2.0000     -11.295582      -307.3684
  17   2.0000     -11.294121      -307.3286
  18   2.0000     -11.292831      -307.2935
  19   2.0000     -11.288206      -307.1677
  20   2.0000     -11.286812      -307.1298
  21   2.0000     -11.282679      -307.0173
  22   2.0000     -11.266384      -306.5739
  23   2.0000      -1.443812       -39.2881
  24   2.0000      -1.407816       -38.3086
  25   2.0000      -1.396566       -38.0025
  26   2.0000      -1.388109       -37.7724
  27   2.0000      -1.383122       -37.6367
  28   2.0000      -1.375940       -37.4412
  29   2.0000      -1.370114       -37.2827
  30   2.0000      -1.355244       -36.8781
  31   2.0000      -1.351156       -36.7668
  32   2.0000      -1.340321       -36.4720
  33   2.0000      -1.334461       -36.3125
  34   2.0000      -1.068082       -29.0640
  35   2.0000      -1.061259       -28.8783
  36   2.0000      -1.060527       -28.8584
  37   2.0000      -1.032502       -28.0958
  38   2.0000      -0.948541       -25.8111
  39   2.0000      -0.925335       -25.1796
  40   2.0000      -0.892458       -24.2850
  41   2.0000      -0.868393       -23.6302
  42   2.0000      -0.848961       -23.1014
  43   2.0000      -0.839254       -22.8373
  44   2.0000      -0.812641       -22.1131
  45   2.0000      -0.777583       -21.1591
  46   2.0000      -0.758151       -20.6303
  47   2.0000      -0.738777       -20.1032
  48   2.0000      -0.725149       -19.7323
  49   2.0000      -0.722745       -19.6669
  50   2.0000      -0.715913       -19.4810
  51   2.0000      -0.707302       -19.2467
  52   2.0000      -0.702280       -19.1100
  53   2.0000      -0.688696       -18.7404
  54   2.0000      -0.675407       -18.3787
  55   2.0000      -0.672297       -18.2941
  56   2.0000      -0.659946       -17.9580
  57   2.0000      -0.656344       -17.8600
  58   2.0000      -0.649351       -17.6697
  59   2.0000      -0.637378       -17.3439
  60   2.0000      -0.636176       -17.3112
  61   2.0000      -0.621513       -16.9122
  62   2.0000      -0.609287       -16.5795
  63   2.0000      -0.602598       -16.3975
  64   2.0000      -0.601138       -16.3578
  65   2.0000      -0.596586       -16.2339
  66   2.0000      -0.587250       -15.9799
  67   2.0000      -0.576384       -15.6842
  68   2.0000      -0.573378       -15.6024
  69   2.0000      -0.565207       -15.3801
  70   2.0000      -0.560883       -15.2624
  71   2.0000      -0.555465       -15.1150
  72   2.0000      -0.548251       -14.9187
  73   2.0000      -0.541487       -14.7346
  74   2.0000      -0.535791       -14.5796
  75   2.0000      -0.527431       -14.3521
  76   2.0000      -0.517196       -14.0736
  77   2.0000      -0.506094       -13.7715
  78   2.0000      -0.498036       -13.5522
  79   2.0000      -0.495812       -13.4917
  80   2.0000      -0.479881       -13.0582
  81   2.0000      -0.474888       -12.9224
  82   2.0000      -0.471319       -12.8252
  83   2.0000      -0.463238       -12.6054
  84   2.0000      -0.448667       -12.2088
  85   2.0000      -0.446183       -12.1413
  86   2.0000      -0.442739       -12.0475
  87   2.0000      -0.439478       -11.9588
  88   2.0000      -0.431696       -11.7470
  89   2.0000      -0.426610       -11.6087
  90   2.0000      -0.412670       -11.2293
  91   0.0000       0.123525         3.3613
  92   0.0000       0.138670         3.7734
  93   0.0000       0.144202         3.9239
  94   0.0000       0.152905         4.1607
  95   0.0000       0.157210         4.2779

MULLIKEN ATOMIC CHARGES
-----------------------
   0 C :    0.113369
   1 H :    0.092953
   2 O :   -0.459317
   3 C :    0.131771
   4 C :    0.093866
   5 C :    0.073757
   6 H :    0.113774
   7 O :   -0.411824
   8 O :   -0.452367
   9 C :    0.073321
  10 H :    0.100564
  11 H :    0.118861
  12 C :    0.242304
  13 O :   -0.474468
  14 O :   -0.439190
  15 H :    0.142146
  16 C :    0.251065
  17 H :    0.152106
  18 O :   -0.414600
  19 C :    0.080186
  20 C :    0.089302
  21 O :   -0.475463
  22 C :    0.134226
  23 H :    0.125549
  24 H :    0.108716
  25 O :   -0.457690
  26 H :    0.126870
  27 C :    0.045306
  28 C :    0.107673
  29 O :   -0.462870
  30 H :    0.088130
  31 H :    0.053424
  32 O :   -0.444261
  33 H :    0.100482
  34 O :   -0.429812
  35 H :    0.099679
  36 H :    0.075385
  37 H :    0.247726
  38 H :    0.226582
  39 H :    0.260545
  40 H :    0.245952
  41 H :    0.245359
  42 H :    0.253257
  43 H :    0.250534
  44 H :    0.257124
Sum of atomic charges:   -0.0000000

LOEWDIN ATOMIC CHARGES
----------------------
   0 C :   -0.118951
   1 H :   -0.025930
   2 O :    0.338392
   3 C :   -0.126905
   4 C :   -0.108924
   5 C :   -0.042177
   6 H :   -0.027046
   7 O :    0.281320
   8 O :    0.320717
   9 C :   -0.131006
  10 H :   -0.024237
  11 H :   -0.021538
  12 C :   -0.262260
  13 O :    0.324146
  14 O :    0.264416
  15 H :   -0.038248
  16 C :   -0.256367
  17 H :   -0.032139
  18 O :    0.280114
  19 C :   -0.115580
  20 C :   -0.110819
  21 O :    0.350135
  22 C :   -0.126284
  23 H :   -0.017992
  24 H :   -0.022202
  25 O :    0.321633
  26 H :   -0.024505
  27 C :   -0.022266
  28 C :   -0.124251
  29 O :    0.318400
  30 H :   -0.028167
  31 H :   -0.037835
  32 O :    0.307790
  33 H :   -0.025058
  34 O :    0.335092
  35 H :   -0.028620
  36 H :   -0.034539
  37 H :   -0.204557
  38 H :   -0.184109
  39 H :   -0.212339
  40 H :   -0.178198
  41 H :   -0.175986
  42 H :   -0.173521
  43 H :   -0.173893
  44 H :   -0.205705

  Mayer bond orders larger than 0.1
B(  0-C ,  1-H ) :   0.9778 B(  0-C ,  2-O ) :   0.9487 B(  0-C ,  3-C ) :   0.9827
B(  0-C ,  4-C ) :   0.9312 B(  2-O , 41-H ) :   0.9624 B(  3-C ,  8-O ) :   0.9796
B(  3-C ,  9-C ) :   0.9550 B(  3-C , 10-H ) :   0.9710 B(  4-C ,  5-C ) :   0.9839
B(  4-C ,  6-H ) :   0.9611 B(  4-C ,  7-O ) :   0.9169 B(  5-C , 31-H ) :   0.9782
B(  5-C , 32-O ) :   0.9987 B(  5-C , 33-H ) :   0.9820 B(  7-O , 12-C ) :   1.0787
B(  8-O , 40-H ) :   0.9697 B(  9-C , 11-H ) :   0.9884 B(  9-C , 12-C ) :   0.9602
B(  9-C , 13-O ) :   0.9764 B( 12-C , 14-O ) :   0.9180 B( 12-C , 15-H ) :   0.9736
B( 13-O , 39-H ) :   0.9392 B( 14-O , 16-C ) :   0.9514 B( 16-C , 17-H ) :   0.9748
B( 16-C , 18-O ) :   1.0662 B( 16-C , 19-C ) :   0.9694 B( 18-O , 20-C ) :   0.9272
B( 19-C , 21-O ) :   0.9156 B( 19-C , 22-C ) :   0.9548 B( 19-C , 23-H ) :   0.9895
B( 20-C , 26-H ) :   0.9606 B( 20-C , 27-C ) :   0.9878 B( 20-C , 28-C ) :   0.9340
B( 21-O , 42-H ) :   0.9516 B( 22-C , 24-H ) :   0.9689 B( 22-C , 25-O ) :   0.9691
B( 22-C , 28-C ) :   0.9770 B( 25-O , 43-H ) :   0.9676 B( 27-C , 34-O ) :   0.9616
B( 27-C , 35-H ) :   0.9861 B( 27-C , 36-H ) :   0.9748 B( 28-C , 29-O ) :   1.0047
B( 28-C , 30-H ) :   0.9748 B( 29-O , 44-H ) :   0.9432 B( 32-O , 37-H ) :   0.9567
B( 34-O , 38-H ) :   0.9832

E(0)                                       ...  -1291.145632762
E(0)                                       ...  -1291.145632762
E(CORR)(strong-pairs)                      ...     -4.708713677
E(CORR)(weak-pairs)                        ...     -0.008585933
E(CORR)(corrected)                         ...     -4.717299610
E(TOT)                                     ...  -1295.862932372
E(CCSD(T))                                 ...  -1296.049325469
FINAL SINGLE POINT ENERGY     -1296.049325468518

DIPOLE MOMENT
-------------
                                X             Y             Z
Electronic contribution:     -0.20152      -2.76944      -0.00427
Nuclear contribution   :      1.75460       1.98598      -0.70892
                        -----------------------------------------
Total Dipole Moment    :      1.55308      -0.78346      -0.71319
                        -----------------------------------------
Magnitude (a.u.)       :      1.88003
Magnitude (Debye)      :      4.77865

Rotational constants in cm-1:     0.012420     0.005265     0.004377
Rotational constants in MHz :   372.328798   157.845617   131.223170

                             ****ORCA TERMINATED NORMALLY****
TOTAL RUN TIME: 0 days 3 hours 1 minutes 51 seconds 457 msec
