                         Program Version 4.1.x  -  STABLE  -
|  1> ! RHF DLPNO-CCSD(T) cc-pVTZ RIJK cc-pVTZ/JK cc-pVTZ/C
|  2> ! KDIIS SOSCF TightSCF TightPNO
|  3>
|  4> %pal nprocs 8 end
|  5>
|  6> %maxcore 8000
|  7>
|  8> %scf maxiter 300
|  9>      shift shift 0.2 erroff 0.1 end
| 10> end
| 11>
| 12> * xyzfile 0 1 thiacyclohexane_twb.xyz
| 13>
| 14>
| 15>                          ****END OF INPUT****

CARTESIAN COORDINATES (ANGSTROEM)
---------------------------------
  C      0.359450   -1.362200   -0.371770
  S      1.553520   -0.000020   -0.000010
  C      0.359510    1.362170    0.371800
  C     -0.937240    1.222440   -0.429150
  C     -1.780900    0.000030   -0.000030
  C     -0.937300   -1.222400    0.429170
  H      0.882510    2.287710    0.115930
  H      0.153350    1.383100    1.447630
  H     -1.533030    2.136700   -0.313680
  H     -0.681600    1.152340   -1.493200
  H     -2.439700   -0.279820   -0.831350
  H     -2.439770    0.279880    0.831230
  H     -1.533120   -2.136640    0.313740
  H     -0.681700   -1.152240    1.493230
  H      0.153290   -1.383160   -1.447600
  H      0.882420   -2.287740   -0.115840

 Total Charge           Charge          ....    0
 Multiplicity           Mult            ....    1
 Number of Electrons    NEL             ....   56
 Basis Dimension        Dim             ....  324

ORBITAL ENERGIES
----------------

  NO   OCC          E(Eh)            E(eV)
   0   2.0000     -91.933385     -2501.6346
   1   2.0000     -11.253465      -306.2223
   2   2.0000     -11.253457      -306.2221
   3   2.0000     -11.230816      -305.6060
   4   2.0000     -11.230767      -305.6047
   5   2.0000     -11.228001      -305.5294
   6   2.0000      -8.934115      -243.1096
   7   2.0000      -6.615307      -180.0117
   8   2.0000      -6.614381      -179.9864
   9   2.0000      -6.613513      -179.9628
  10   2.0000      -1.111900       -30.2563
  11   2.0000      -1.015206       -27.6252
  12   2.0000      -0.996131       -27.1061
  13   2.0000      -0.850443       -23.1417
  14   2.0000      -0.835185       -22.7265
  15   2.0000      -0.737315       -20.0634
  16   2.0000      -0.655020       -17.8240
  17   2.0000      -0.641340       -17.4517
  18   2.0000      -0.579459       -15.7679
  19   2.0000      -0.571236       -15.5441
  20   2.0000      -0.546587       -14.8734
  21   2.0000      -0.519627       -14.1398
  22   2.0000      -0.511336       -13.9142
  23   2.0000      -0.492543       -13.4028
  24   2.0000      -0.467710       -12.7270
  25   2.0000      -0.439036       -11.9468
  26   2.0000      -0.405290       -11.0285
  27   2.0000      -0.328614        -8.9420
  28   0.0000       0.130420         3.5489
  29   0.0000       0.154799         4.2123
  30   0.0000       0.163238         4.4419
  31   0.0000       0.175884         4.7861
  32   0.0000       0.176506         4.8030

MULLIKEN ATOMIC CHARGES
-----------------------
   0 C :   -0.161500
   1 S :   -0.179689
   2 C :   -0.161500
   3 C :   -0.192794
   4 C :   -0.207454
   5 C :   -0.192796
   6 H :    0.122673
   7 H :    0.107381
   8 H :    0.113797
   9 H :    0.101489
  10 H :    0.102525
  11 H :    0.102527
  12 H :    0.113802
  13 H :    0.101485
  14 H :    0.107383
  15 H :    0.122672
Sum of atomic charges:   -0.0000000

LOEWDIN ATOMIC CHARGES
----------------------
   0 C :   -0.088317
   1 S :    0.359198
   2 C :   -0.088332
   3 C :    0.038082
   4 C :    0.059402
   5 C :    0.038084
   6 H :   -0.038571
   7 H :   -0.044653
   8 H :   -0.024295
   9 H :   -0.025171
  10 H :   -0.026365
  11 H :   -0.026366
  12 H :   -0.024298
  13 H :   -0.025170
  14 H :   -0.044652
  15 H :   -0.038574

  Mayer bond orders larger than 0.1
B(  0-C ,  1-S ) :   0.9723 B(  0-C ,  5-C ) :   0.9481 B(  0-C , 14-H ) :   0.9788
B(  0-C , 15-H ) :   0.9821 B(  1-S ,  2-C ) :   0.9723 B(  2-C ,  3-C ) :   0.9481
B(  2-C ,  6-H ) :   0.9821 B(  2-C ,  7-H ) :   0.9788 B(  3-C ,  4-C ) :   0.9414
B(  3-C ,  8-H ) :   0.9861 B(  3-C ,  9-H ) :   0.9801 B(  4-C ,  5-C ) :   0.9414
B(  4-C , 10-H ) :   0.9917 B(  4-C , 11-H ) :   0.9917 B(  5-C , 12-H ) :   0.9861
B(  5-C , 13-H ) :   0.9801

E(0)                                       ...   -592.772608174
E(0)                                       ...   -592.772608174
E(CORR)(strong-pairs)                      ...     -1.100973041
E(CORR)(weak-pairs)                        ...     -0.000983884
E(CORR)(corrected)                         ...     -1.101956925
E(TOT)                                     ...   -593.874565099
E(CCSD(T))                                 ...   -593.921120498
FINAL SINGLE POINT ENERGY      -593.921120497931

DIPOLE MOMENT
-------------
                                X             Y             Z
Electronic contribution:      6.65766      -0.00012      -0.00006
Nuclear contribution   :     -7.49753       0.00013       0.00008
                        -----------------------------------------
Total Dipole Moment    :     -0.83987       0.00000       0.00002
                        -----------------------------------------
Magnitude (a.u.)       :      0.83987
Magnitude (Debye)      :      2.13479

Rotational constants in cm-1:     0.134861     0.095491     0.063525
Rotational constants in MHz :  4043.045814  2862.734924  1904.420616

                             ****ORCA TERMINATED NORMALLY****
TOTAL RUN TIME: 0 days 0 hours 7 minutes 35 seconds 740 msec
