                         Program Version 4.1.x  -  STABLE  -
|  1> ! RHF DLPNO-CCSD(T) cc-pVTZ RIJK cc-pVTZ/JK cc-pVTZ/C
|  2> ! KDIIS SOSCF TightSCF TightPNO
|  3>
|  4> %pal nprocs 8 end
|  5>
|  6> %maxcore 8000
|  7>
|  8> %scf maxiter 300
|  9>      shift shift 0.2 erroff 0.1 end
| 10> end
| 11>
| 12> * xyzfile 0 1 thiacyclohexane_ch.xyz
| 13>
| 14>
| 15>                          ****END OF INPUT****

CARTESIAN COORDINATES (ANGSTROEM)
---------------------------------
  C      0.992170    1.285260   -0.255290
  C      1.723880   -0.000010    0.166680
  C      0.992150   -1.285260   -0.255290
  C     -0.421700   -1.385850    0.326200
  S     -1.509810   -0.000000   -0.194910
  C     -0.421720    1.385860    0.326200
  H      0.933550   -1.333680   -1.350050
  H      1.569790   -2.159450    0.075080
  H     -0.386990   -1.417230    1.422460
  H     -0.924170   -2.296440   -0.013440
  H      2.734150   -0.000010   -0.260160
  H      1.849830   -0.000000    1.259630
  H     -0.387040    1.417270    1.422450
  H      1.569820    2.159430    0.075140
  H      0.933590    1.333700   -1.350040
  H     -0.924180    2.296440   -0.013500

 Total Charge           Charge          ....    0
 Multiplicity           Mult            ....    1
 Number of Electrons    NEL             ....   56
 Basis Dimension        Dim             ....  324

ORBITAL ENERGIES
----------------

  NO   OCC          E(Eh)            E(eV)
   0   2.0000     -91.934913     -2501.6762
   1   2.0000     -11.253401      -306.2206
   2   2.0000     -11.253393      -306.2204
   3   2.0000     -11.228584      -305.5453
   4   2.0000     -11.228501      -305.5431
   5   2.0000     -11.226614      -305.4917
   6   2.0000      -8.935837      -243.1565
   7   2.0000      -6.617028      -180.0585
   8   2.0000      -6.616115      -180.0337
   9   2.0000      -6.615232      -180.0096
  10   2.0000      -1.112065       -30.2608
  11   2.0000      -1.016879       -27.6707
  12   2.0000      -1.000936       -27.2369
  13   2.0000      -0.840787       -22.8790
  14   2.0000      -0.835474       -22.7344
  15   2.0000      -0.752947       -20.4887
  16   2.0000      -0.642796       -17.4914
  17   2.0000      -0.612881       -16.6774
  18   2.0000      -0.609757       -16.5923
  19   2.0000      -0.576587       -15.6897
  20   2.0000      -0.545279       -14.8378
  21   2.0000      -0.523805       -14.2535
  22   2.0000      -0.497925       -13.5492
  23   2.0000      -0.494063       -13.4441
  24   2.0000      -0.472489       -12.8571
  25   2.0000      -0.434500       -11.8233
  26   2.0000      -0.411603       -11.2003
  27   2.0000      -0.330808        -9.0017
  28   0.0000       0.136815         3.7229
  29   0.0000       0.151726         4.1287
  30   0.0000       0.159606         4.3431
  31   0.0000       0.177242         4.8230
  32   0.0000       0.179948         4.8966

MULLIKEN ATOMIC CHARGES
-----------------------
   0 C :   -0.175225
   1 C :   -0.202693
   2 C :   -0.175217
   3 C :   -0.175791
   4 S :   -0.163220
   5 C :   -0.175795
   6 H :    0.098197
   7 H :    0.108195
   8 H :    0.105761
   9 H :    0.121444
  10 H :    0.111120
  11 H :    0.089617
  12 H :    0.105771
  13 H :    0.108190
  14 H :    0.098206
  15 H :    0.121440
Sum of atomic charges:    0.0000000

LOEWDIN ATOMIC CHARGES
----------------------
   0 C :    0.035641
   1 C :    0.053688
   2 C :    0.035626
   3 C :   -0.095718
   4 S :    0.374134
   5 C :   -0.095711
   6 H :   -0.024815
   7 H :   -0.024314
   8 H :   -0.042750
   9 H :   -0.036421
  10 H :   -0.024040
  11 H :   -0.027004
  12 H :   -0.042758
  13 H :   -0.024313
  14 H :   -0.024823
  15 H :   -0.036421

  Mayer bond orders larger than 0.1
B(  0-C ,  1-C ) :   0.9506 B(  0-C ,  5-C ) :   0.9402 B(  0-C , 13-H ) :   0.9860
B(  0-C , 14-H ) :   0.9784 B(  1-C ,  2-C ) :   0.9506 B(  1-C , 10-H ) :   0.9923
B(  1-C , 11-H ) :   0.9841 B(  2-C ,  3-C ) :   0.9402 B(  2-C ,  6-H ) :   0.9784
B(  2-C ,  7-H ) :   0.9860 B(  3-C ,  4-S ) :   0.9887 B(  3-C ,  8-H ) :   0.9779
B(  3-C ,  9-H ) :   0.9842 B(  4-S ,  5-C ) :   0.9887 B(  5-C , 12-H ) :   0.9779
B(  5-C , 15-H ) :   0.9842

E(0)                                       ...   -592.781121392
E(0)                                       ...   -592.781121392
E(CORR)(strong-pairs)                      ...     -1.100264482
E(CORR)(weak-pairs)                        ...     -0.000974676
E(CORR)(corrected)                         ...     -1.101239158
E(TOT)                                     ...   -593.882360550
E(CCSD(T))                                 ...   -593.928816765
FINAL SINGLE POINT ENERGY      -593.928816765018

DIPOLE MOMENT
-------------
                                X             Y             Z
Electronic contribution:     -6.47692      -0.00003      -1.05486
Nuclear contribution   :      7.21928       0.00003       1.31068
                        -----------------------------------------
Total Dipole Moment    :      0.74236      -0.00000       0.25583
                        -----------------------------------------
Magnitude (a.u.)       :      0.78520
Magnitude (Debye)      :      1.99582

Rotational constants in cm-1:     0.131129     0.098558     0.062561
Rotational constants in MHz :  3931.162591  2954.696905  1875.542052

                             ****ORCA TERMINATED NORMALLY****
TOTAL RUN TIME: 0 days 0 hours 6 minutes 24 seconds 792 msec
