                         Program Version 4.1.x  -  STABLE  -
|  1> ! RHF DLPNO-CCSD(T) cc-pVTZ RIJK cc-pVTZ/JK cc-pVTZ/C
|  2> ! KDIIS SOSCF TightSCF TightPNO
|  3>
|  4> %pal nprocs 8 end
|  5>
|  6> %maxcore 8000
|  7>
|  8> %scf maxiter 300
|  9>      shift shift 0.2 erroff 0.1 end
| 10> end
| 11>
| 12> * xyzfile 0 1 THP_F_eq.xyz
| 13>
| 14>
| 15>                          ****END OF INPUT****

CARTESIAN COORDINATES (ANGSTROEM)
---------------------------------
  O      0.388360   -1.156430   -0.210820
  C     -0.983130   -1.283490    0.187270
  C     -1.814110   -0.090420   -0.287530
  C     -1.185710    1.222270    0.205250
  C      0.310160    1.268180   -0.157300
  C      0.993760   -0.005450    0.315470
  F      2.306060   -0.033470   -0.128910
  H     -1.852420   -0.098330   -1.383870
  H     -2.843220   -0.193230    0.078050
  H     -1.301250    1.295370    1.296100
  H     -1.703280    2.088120   -0.221380
  H      0.803550    2.136360    0.293090
  H      0.442440    1.329550   -1.243880
  H     -1.326020   -2.223090   -0.251740
  H     -1.038820   -1.377840    1.285000
  H      1.031740   -0.070760    1.416280

 Total Charge           Charge          ....    0
 Multiplicity           Mult            ....    1
 Number of Electrons    NEL             ....   56
 Basis Dimension        Dim             ....  336

ORBITAL ENERGIES
----------------

  NO   OCC          E(Eh)            E(eV)
   0   2.0000     -26.273782      -714.9460
   1   2.0000     -20.565484      -559.6153
   2   2.0000     -11.362006      -309.1759
   3   2.0000     -11.287353      -307.1445
   4   2.0000     -11.239250      -305.8355
   5   2.0000     -11.234545      -305.7075
   6   2.0000     -11.233066      -305.6673
   7   2.0000      -1.590904       -43.2907
   8   2.0000      -1.385127       -37.6912
   9   2.0000      -1.089292       -29.6411
  10   2.0000      -1.032134       -28.0858
  11   2.0000      -0.893874       -24.3236
  12   2.0000      -0.873483       -23.7687
  13   2.0000      -0.795419       -21.6445
  14   2.0000      -0.712269       -19.3818
  15   2.0000      -0.701304       -19.0835
  16   2.0000      -0.681233       -18.5373
  17   2.0000      -0.643814       -17.5191
  18   2.0000      -0.619483       -16.8570
  19   2.0000      -0.605842       -16.4858
  20   2.0000      -0.584258       -15.8985
  21   2.0000      -0.558499       -15.1975
  22   2.0000      -0.546127       -14.8609
  23   2.0000      -0.507943       -13.8218
  24   2.0000      -0.497789       -13.5455
  25   2.0000      -0.488711       -13.2985
  26   2.0000      -0.466753       -12.7010
  27   2.0000      -0.419866       -11.4251
  28   0.0000       0.133928         3.6444
  29   0.0000       0.151109         4.1119
  30   0.0000       0.161060         4.3827
  31   0.0000       0.183330         4.9887
  32   0.0000       0.205254         5.5852

MULLIKEN ATOMIC CHARGES
-----------------------
   0 O :   -0.367790
   1 C :    0.009955
   2 C :   -0.187756
   3 C :   -0.224892
   4 C :   -0.205794
   5 C :    0.388561
   6 F :   -0.285263
   7 H :    0.098532
   8 H :    0.107270
   9 H :    0.097122
  10 H :    0.116339
  11 H :    0.112836
  12 H :    0.101209
  13 H :    0.117062
  14 H :    0.072399
  15 H :    0.050210
Sum of atomic charges:    0.0000000

LOEWDIN ATOMIC CHARGES
----------------------
   0 O :    0.260207
   1 C :   -0.036944
   2 C :    0.052573
   3 C :    0.059834
   4 C :    0.053120
   5 C :   -0.279403
   6 F :    0.123719
   7 H :   -0.022292
   8 H :   -0.022199
   9 H :   -0.025300
  10 H :   -0.023137
  11 H :   -0.020290
  12 H :   -0.018182
  13 H :   -0.023885
  14 H :   -0.035501
  15 H :   -0.042319

  Mayer bond orders larger than 0.1
B(  0-O ,  1-C ) :   0.9630 B(  0-O ,  5-C ) :   1.0343 B(  1-C ,  2-C ) :   0.9499
B(  1-C , 13-H ) :   0.9889 B(  1-C , 14-H ) :   0.9868 B(  2-C ,  3-C ) :   0.9439
B(  2-C ,  7-H ) :   0.9791 B(  2-C ,  8-H ) :   0.9843 B(  3-C ,  4-C ) :   0.9366
B(  3-C ,  9-H ) :   0.9846 B(  3-C , 10-H ) :   0.9871 B(  4-C ,  5-C ) :   0.9686
B(  4-C , 11-H ) :   0.9848 B(  4-C , 12-H ) :   0.9733 B(  5-C ,  6-F ) :   1.0080
B(  5-C , 15-H ) :   0.9935

E(0)                                       ...   -369.013447642
E(0)                                       ...   -369.013447642
E(CORR)(strong-pairs)                      ...     -1.378764176
E(CORR)(weak-pairs)                        ...     -0.001349116
E(CORR)(corrected)                         ...     -1.380113293
E(TOT)                                     ...   -370.393560935
E(CCSD(T))                                 ...   -370.445405252
FINAL SINGLE POINT ENERGY      -370.445405251685

DIPOLE MOMENT
-------------
                                X             Y             Z
Electronic contribution:      8.92464      -2.45595      -0.93335
Nuclear contribution   :    -10.15984       2.93017       1.40566
                        -----------------------------------------
Total Dipole Moment    :     -1.23520       0.47422       0.47231
                        -----------------------------------------
Magnitude (a.u.)       :      1.40488
Magnitude (Debye)      :      3.57092

Rotational constants in cm-1:     0.151388     0.077306     0.055735
Rotational constants in MHz :  4538.494583  2317.581125  1670.879216

                             ****ORCA TERMINATED NORMALLY****
TOTAL RUN TIME: 0 days 0 hours 7 minutes 34 seconds 101 msec
