                         Program Version 4.1.x  -  STABLE  -
|  1> ! RHF DLPNO-CCSD(T) cc-pVTZ RIJK cc-pVTZ/JK cc-pVTZ/C
|  2> ! KDIIS SOSCF TightSCF TightPNO
|  3>
|  4> %pal nprocs 8 end
|  5>
|  6> %maxcore 8000
|  7>
|  8> %scf maxiter 300
|  9>      shift shift 0.2 erroff 0.1 end
| 10> end
| 11>
| 12> * xyzfile 0 1 THP_F_ax.xyz
| 13>
| 14>
| 15>                          ****END OF INPUT****

CARTESIAN COORDINATES (ANGSTROEM)
---------------------------------
  O      0.370880   -1.164310   -0.621480
  C     -0.805520   -1.283070    0.208630
  C     -1.731520   -0.079520    0.054560
  C     -0.961720    1.218750    0.339580
  C      0.299060    1.277290   -0.535440
  C      1.111060   -0.009700   -0.431960
  F      1.713390   -0.042080    0.856420
  H     -2.132930   -0.060520   -0.967240
  H     -2.583000   -0.190600    0.736950
  H     -0.674380    1.252310    1.397640
  H     -1.591180    2.095340    0.151020
  H      0.940750    2.121920   -0.264730
  H      0.019930    1.399870   -1.589920
  H     -1.281670   -2.210150   -0.117970
  H     -0.489910   -1.402900    1.252840
  H      1.936640   -0.054430   -1.146700

 Total Charge           Charge          ....    0
 Multiplicity           Mult            ....    1
 Number of Electrons    NEL             ....   56
 Basis Dimension        Dim             ....  336

ORBITAL ENERGIES
----------------

  NO   OCC          E(Eh)            E(eV)
   0   2.0000     -26.263729      -714.6724
   1   2.0000     -20.568649      -559.7014
   2   2.0000     -11.360036      -309.1223
   3   2.0000     -11.280938      -306.9699
   4   2.0000     -11.234473      -305.7055
   5   2.0000     -11.232801      -305.6600
   6   2.0000     -11.231493      -305.6245
   7   2.0000      -1.574339       -42.8399
   8   2.0000      -1.386628       -37.7321
   9   2.0000      -1.086150       -29.5556
  10   2.0000      -1.034885       -28.1606
  11   2.0000      -0.888757       -24.1843
  12   2.0000      -0.876935       -23.8626
  13   2.0000      -0.775529       -21.1032
  14   2.0000      -0.721772       -19.6404
  15   2.0000      -0.689035       -18.7496
  16   2.0000      -0.670850       -18.2548
  17   2.0000      -0.644791       -17.5457
  18   2.0000      -0.615288       -16.7428
  19   2.0000      -0.595825       -16.2132
  20   2.0000      -0.576021       -15.6743
  21   2.0000      -0.554916       -15.1000
  22   2.0000      -0.544692       -14.8218
  23   2.0000      -0.533297       -14.5117
  24   2.0000      -0.488281       -13.2868
  25   2.0000      -0.472206       -12.8494
  26   2.0000      -0.464226       -12.6322
  27   2.0000      -0.427977       -11.6458
  28   0.0000       0.136648         3.7184
  29   0.0000       0.158317         4.3080
  30   0.0000       0.170605         4.6424
  31   0.0000       0.176866         4.8128
  32   0.0000       0.201716         5.4890

MULLIKEN ATOMIC CHARGES
-----------------------
   0 O :   -0.382777
   1 C :    0.023072
   2 C :   -0.200792
   3 C :   -0.206614
   4 C :   -0.203892
   5 C :    0.376339
   6 F :   -0.345099
   7 H :    0.092898
   8 H :    0.107342
   9 H :    0.107506
  10 H :    0.112880
  11 H :    0.112512
  12 H :    0.095686
  13 H :    0.112186
  14 H :    0.091713
  15 H :    0.107039
Sum of atomic charges:   -0.0000000

LOEWDIN ATOMIC CHARGES
----------------------
   0 O :    0.269027
   1 C :   -0.021619
   2 C :    0.051856
   3 C :    0.060368
   4 C :    0.052862
   5 C :   -0.259415
   6 F :    0.060433
   7 H :   -0.024110
   8 H :   -0.021339
   9 H :   -0.021337
  10 H :   -0.024819
  11 H :   -0.017951
  12 H :   -0.017961
  13 H :   -0.026073
  14 H :   -0.031428
  15 H :   -0.028495

  Mayer bond orders larger than 0.1
B(  0-O ,  1-C ) :   0.9368 B(  0-O ,  5-C ) :   1.1017 B(  1-C ,  2-C ) :   0.9569
B(  1-C , 13-H ) :   0.9897 B(  1-C , 14-H ) :   0.9835 B(  2-C ,  3-C ) :   0.9473
B(  2-C ,  7-H ) :   0.9811 B(  2-C ,  8-H ) :   0.9840 B(  3-C ,  4-C ) :   0.9458
B(  3-C ,  9-H ) :   0.9811 B(  3-C , 10-H ) :   0.9922 B(  4-C ,  5-C ) :   0.9757
B(  4-C , 11-H ) :   0.9829 B(  4-C , 12-H ) :   0.9773 B(  5-C ,  6-F ) :   0.9148
B(  5-C , 15-H ) :   0.9993

E(0)                                       ...   -369.016663220
E(0)                                       ...   -369.016663220
E(CORR)(strong-pairs)                      ...     -1.379283270
E(CORR)(weak-pairs)                        ...     -0.001331393
E(CORR)(corrected)                         ...     -1.380614662
E(TOT)                                     ...   -370.397277882
E(CCSD(T))                                 ...   -370.449268539
FINAL SINGLE POINT ENERGY      -370.449268539210

DIPOLE MOMENT
-------------
                                X             Y             Z
Electronic contribution:      6.85143      -2.52772       1.13380
Nuclear contribution   :     -7.61794       3.00396      -1.41784
                        -----------------------------------------
Total Dipole Moment    :     -0.76651       0.47624      -0.28404
                        -----------------------------------------
Magnitude (a.u.)       :      0.94605
Magnitude (Debye)      :      2.40468

Rotational constants in cm-1:     0.125019     0.090704     0.068010
Rotational constants in MHz :  3747.966120  2719.244943  2038.874083

                             ****ORCA TERMINATED NORMALLY****
TOTAL RUN TIME: 0 days 0 hours 7 minutes 13 seconds 293 msec
