                         Program Version 4.1.x  -  STABLE  -
|  1> ! RHF DLPNO-CCSD(T) cc-pVTZ RIJK cc-pVTZ/JK cc-pVTZ/C
|  2> ! KDIIS SOSCF TightSCF TightPNO
|  3>
|  4> %pal nprocs 8 end
|  5>
|  6> %maxcore 8000
|  7>
|  8> %scf maxiter 300
|  9>      shift shift 0.2 erroff 0.1 end
| 10> end
| 11>
| 12> * xyzfile 0 1 TMH_a.xyz
| 13>
| 14>
| 15>                          ****END OF INPUT****

CARTESIAN COORDINATES (ANGSTROEM)
---------------------------------
  C      3.278470    0.357670    0.060010
  C      1.820480    0.771450   -0.197340
  C      0.730390   -0.331680   -0.017770
  C      0.985460   -1.089380    1.307290
  C     -0.730400    0.331680   -0.017770
  C     -0.877160    1.349080   -1.175360
  C      0.877180   -1.349060   -1.175370
  C     -1.820500   -0.771450   -0.197370
  C     -3.278480   -0.357680    0.060000
  C     -0.985460    1.089350    1.307320
  H      3.946260    1.194990   -0.171340
  H      3.452620    0.083040    1.105040
  H      3.592510   -0.486190   -0.563610
  H      1.594820    1.615480    0.465150
  H      1.754760    1.162080   -1.219380
  H     -1.754780   -1.162050   -1.219410
  H     -1.594830   -1.615500    0.465100
  H     -3.946280   -1.194980   -0.171390
  H     -3.452630   -0.083080    1.105040
  H     -3.592530    0.486220   -0.563580
  H      0.253490   -2.234740   -1.024150
  H      0.615100   -0.913290   -2.145360
  H      1.911970   -1.698880   -1.245270
  H      0.170070   -1.778720    1.547280
  H      1.897570   -1.689890    1.234890
  H      1.108480   -0.408890    2.155840
  H     -1.897570    1.689870    1.234930
  H     -1.108460    0.408840    2.155850
  H     -0.170060    1.778680    1.547320
  H     -1.911930    1.698940   -1.245280
  H     -0.253450    2.234750   -1.024120
  H     -0.615070    0.913330   -2.145350

 Total Charge           Charge          ....    0
 Multiplicity           Mult            ....    1
 Number of Electrons    NEL             ....   82
 Basis Dimension        Dim             ....  608

ORBITAL ENERGIES
----------------

  NO   OCC          E(Eh)            E(eV)
   0   2.0000     -11.234916      -305.7176
   1   2.0000     -11.234449      -305.7049
   2   2.0000     -11.213651      -305.1389
   3   2.0000     -11.213648      -305.1389
   4   2.0000     -11.209382      -305.0228
   5   2.0000     -11.209381      -305.0228
   6   2.0000     -11.205673      -304.9219
   7   2.0000     -11.205669      -304.9218
   8   2.0000     -11.205408      -304.9146
   9   2.0000     -11.205405      -304.9146
  10   2.0000      -1.120648       -30.4944
  11   2.0000      -1.050869       -28.5956
  12   2.0000      -0.984800       -26.7978
  13   2.0000      -0.980130       -26.6707
  14   2.0000      -0.937185       -25.5021
  15   2.0000      -0.908783       -24.7292
  16   2.0000      -0.858824       -23.3698
  17   2.0000      -0.858360       -23.3572
  18   2.0000      -0.767418       -20.8825
  19   2.0000      -0.688947       -18.7472
  20   2.0000      -0.642682       -17.4883
  21   2.0000      -0.621806       -16.9202
  22   2.0000      -0.613017       -16.6810
  23   2.0000      -0.602446       -16.3934
  24   2.0000      -0.592991       -16.1361
  25   2.0000      -0.568747       -15.4764
  26   2.0000      -0.547324       -14.8935
  27   2.0000      -0.533648       -14.5213
  28   2.0000      -0.532711       -14.4958
  29   2.0000      -0.527850       -14.3635
  30   2.0000      -0.523569       -14.2470
  31   2.0000      -0.510478       -13.8908
  32   2.0000      -0.499915       -13.6034
  33   2.0000      -0.496865       -13.5204
  34   2.0000      -0.493737       -13.4353
  35   2.0000      -0.482015       -13.1163
  36   2.0000      -0.463659       -12.6168
  37   2.0000      -0.461320       -12.5532
  38   2.0000      -0.427738       -11.6393
  39   2.0000      -0.417094       -11.3497
  40   2.0000      -0.411649       -11.2015
  41   0.0000       0.135037         3.6746
  42   0.0000       0.152604         4.1526
  43   0.0000       0.169289         4.6066
  44   0.0000       0.170717         4.6455
  45   0.0000       0.182092         4.9550

MULLIKEN ATOMIC CHARGES
-----------------------
   0 C :   -0.318395
   1 C :   -0.193284
   2 C :    0.039493
   3 C :   -0.351952
   4 C :    0.039481
   5 C :   -0.343742
   6 C :   -0.343739
   7 C :   -0.193277
   8 C :   -0.318393
   9 C :   -0.351947
  10 H :    0.107758
  11 H :    0.096011
  12 H :    0.093601
  13 H :    0.107581
  14 H :    0.102222
  15 H :    0.102228
  16 H :    0.107577
  17 H :    0.107760
  18 H :    0.096011
  19 H :    0.093597
  20 H :    0.110194
  21 H :    0.105366
  22 H :    0.111756
  23 H :    0.113003
  24 H :    0.112625
  25 H :    0.107757
  26 H :    0.112622
  27 H :    0.107761
  28 H :    0.113001
  29 H :    0.111760
  30 H :    0.110190
  31 H :    0.105370
Sum of atomic charges:    0.0000000

LOEWDIN ATOMIC CHARGES
----------------------
   0 C :    0.107850
   1 C :    0.057991
   2 C :   -0.066969
   3 C :    0.112904
   4 C :   -0.066960
   5 C :    0.113538
   6 C :    0.113538
   7 C :    0.057991
   8 C :    0.107845
   9 C :    0.112906
  10 H :   -0.028347
  11 H :   -0.032208
  12 H :   -0.034509
  13 H :   -0.028547
  14 H :   -0.024856
  15 H :   -0.024861
  16 H :   -0.028544
  17 H :   -0.028348
  18 H :   -0.032207
  19 H :   -0.034503
  20 H :   -0.028501
  21 H :   -0.031683
  22 H :   -0.029423
  23 H :   -0.031933
  24 H :   -0.026890
  25 H :   -0.028421
  26 H :   -0.026889
  27 H :   -0.028425
  28 H :   -0.031932
  29 H :   -0.029426
  30 H :   -0.028498
  31 H :   -0.031685

  Mayer bond orders larger than 0.1
B(  0-C ,  1-C ) :   0.9550 B(  0-C , 10-H ) :   0.9877 B(  0-C , 11-H ) :   0.9833
B(  0-C , 12-H ) :   0.9826 B(  1-C ,  2-C ) :   0.9547 B(  1-C , 13-H ) :   0.9817
B(  1-C , 14-H ) :   0.9869 B(  2-C ,  3-C ) :   0.9320 B(  2-C ,  4-C ) :   0.9803
B(  2-C ,  6-C ) :   0.9456 B(  3-C , 23-H ) :   0.9848 B(  3-C , 24-H ) :   0.9856
B(  3-C , 25-H ) :   0.9838 B(  4-C ,  5-C ) :   0.9456 B(  4-C ,  7-C ) :   0.9547
B(  4-C ,  9-C ) :   0.9320 B(  5-C , 29-H ) :   0.9851 B(  5-C , 30-H ) :   0.9839
B(  5-C , 31-H ) :   0.9831 B(  6-C , 20-H ) :   0.9839 B(  6-C , 21-H ) :   0.9831
B(  6-C , 22-H ) :   0.9851 B(  7-C ,  8-C ) :   0.9550 B(  7-C , 15-H ) :   0.9869
B(  7-C , 16-H ) :   0.9817 B(  8-C , 17-H ) :   0.9877 B(  8-C , 18-H ) :   0.9833
B(  8-C , 19-H ) :   0.9826 B(  9-C , 26-H ) :   0.9856 B(  9-C , 27-H ) :   0.9838
B(  9-C , 28-H ) :   0.9848

E(0)                                       ...   -391.609887114
E(0)                                       ...   -391.609887114
E(CORR)(strong-pairs)                      ...     -1.897872138
E(CORR)(weak-pairs)                        ...     -0.002442073
E(CORR)(corrected)                         ...     -1.900314211
E(TOT)                                     ...   -393.510201325
E(CCSD(T))                                 ...   -393.585975978
FINAL SINGLE POINT ENERGY      -393.585975977545

DIPOLE MOMENT
-------------
                                X             Y             Z
Electronic contribution:     -0.00008      -0.00004      -0.30303
Nuclear contribution   :      0.00008       0.00004       0.30110
                        -----------------------------------------
Total Dipole Moment    :      0.00000      -0.00000      -0.00194
                        -----------------------------------------
Magnitude (a.u.)       :      0.00194
Magnitude (Debye)      :      0.00492

Rotational constants in cm-1:     0.068171     0.027325     0.026468
Rotational constants in MHz :  2043.705362   819.179821   793.487546

                             ****ORCA TERMINATED NORMALLY****
TOTAL RUN TIME: 0 days 0 hours 57 minutes 44 seconds 261 msec
