                         Program Version 4.1.x  -  STABLE  -
|  1> ! RHF DLPNO-CCSD(T) cc-pVTZ RIJK cc-pVTZ/JK cc-pVTZ/C
|  2> ! KDIIS SOSCF TightSCF TightPNO
|  3>
|  4> %pal nprocs 8 end
|  5>
|  6> %maxcore 8000
|  7>
|  8> %scf maxiter 300
|  9>      shift shift 0.2 erroff 0.1 end
| 10> end
| 11>
| 12> * xyzfile 0 1 TMH_g.xyz
| 13>
| 14>
| 15>                          ****END OF INPUT****

CARTESIAN COORDINATES (ANGSTROEM)
---------------------------------
  C      2.980620   -1.125790    0.222310
  C      1.444440   -1.068580    0.254000
  C      0.780840    0.275310   -0.183230
  C      0.984500    0.452470   -1.707510
  C     -0.780840    0.275310    0.183240
  C     -1.504570    1.448830   -0.519620
  C      1.504570    1.448840    0.519610
  C     -1.444430   -1.068580   -0.253990
  C     -2.980610   -1.125790   -0.222320
  C     -0.984510    0.452470    1.707520
  H      3.317960   -2.138080    0.471270
  H      3.388870   -0.883990   -0.764880
  H      3.436410   -0.444730    0.947610
  H      1.064710   -1.872710   -0.386190
  H      1.124640   -1.315090    1.273810
  H     -1.124610   -1.315100   -1.273800
  H     -1.064720   -1.872710    0.386210
  H     -3.317950   -2.138080   -0.471290
  H     -3.388880   -0.883990    0.764860
  H     -3.436390   -0.444740   -0.947630
  H      0.988660    2.400400    0.358790
  H      1.593430    1.293670    1.599430
  H      2.517290    1.566150    0.121970
  H      0.678310    1.447000   -2.045290
  H      2.041630    0.340710   -1.968130
  H      0.426470   -0.286780   -2.291530
  H     -2.041640    0.340710    1.968120
  H     -0.426480   -0.286780    2.291540
  H     -0.678330    1.447000    2.045290
  H     -2.517300    1.566110   -0.121990
  H     -0.988690    2.400400   -0.358790
  H     -1.593410    1.293660   -1.599440

 Total Charge           Charge          ....    0
 Multiplicity           Mult            ....    1
 Number of Electrons    NEL             ....   82
 Basis Dimension        Dim             ....  608

ORBITAL ENERGIES
----------------

  NO   OCC          E(Eh)            E(eV)
   0   2.0000     -11.234941      -305.7183
   1   2.0000     -11.234474      -305.7056
   2   2.0000     -11.213771      -305.1422
   3   2.0000     -11.213767      -305.1421
   4   2.0000     -11.209325      -305.0212
   5   2.0000     -11.209324      -305.0212
   6   2.0000     -11.205522      -304.9178
   7   2.0000     -11.205520      -304.9177
   8   2.0000     -11.205400      -304.9144
   9   2.0000     -11.205399      -304.9144
  10   2.0000      -1.120682       -30.4953
  11   2.0000      -1.050412       -28.5832
  12   2.0000      -0.993352       -27.0305
  13   2.0000      -0.970798       -26.4168
  14   2.0000      -0.932590       -25.3771
  15   2.0000      -0.914504       -24.8849
  16   2.0000      -0.875635       -23.8272
  17   2.0000      -0.837637       -22.7933
  18   2.0000      -0.772004       -21.0073
  19   2.0000      -0.688599       -18.7377
  20   2.0000      -0.646696       -17.5975
  21   2.0000      -0.619749       -16.8642
  22   2.0000      -0.615092       -16.7375
  23   2.0000      -0.594920       -16.1886
  24   2.0000      -0.593352       -16.1459
  25   2.0000      -0.561898       -15.2900
  26   2.0000      -0.554961       -15.1012
  27   2.0000      -0.545671       -14.8485
  28   2.0000      -0.534720       -14.5505
  29   2.0000      -0.518929       -14.1208
  30   2.0000      -0.518226       -14.1017
  31   2.0000      -0.509101       -13.8533
  32   2.0000      -0.506867       -13.7925
  33   2.0000      -0.490750       -13.3540
  34   2.0000      -0.490476       -13.3465
  35   2.0000      -0.486278       -13.2323
  36   2.0000      -0.465634       -12.6705
  37   2.0000      -0.462865       -12.5952
  38   2.0000      -0.424640       -11.5550
  39   2.0000      -0.417183       -11.3521
  40   2.0000      -0.413096       -11.2409
  41   0.0000       0.134069         3.6482
  42   0.0000       0.155712         4.2371
  43   0.0000       0.169000         4.5987
  44   0.0000       0.171444         4.6652
  45   0.0000       0.180211         4.9038

MULLIKEN ATOMIC CHARGES
-----------------------
   0 C :   -0.318319
   1 C :   -0.194070
   2 C :    0.039955
   3 C :   -0.339400
   4 C :    0.039954
   5 C :   -0.356540
   6 C :   -0.356539
   7 C :   -0.194070
   8 C :   -0.318322
   9 C :   -0.339400
  10 H :    0.107598
  11 H :    0.093711
  12 H :    0.096569
  13 H :    0.104629
  14 H :    0.107936
  15 H :    0.107933
  16 H :    0.104630
  17 H :    0.107597
  18 H :    0.093712
  19 H :    0.096570
  20 H :    0.113163
  21 H :    0.107764
  22 H :    0.112176
  23 H :    0.108289
  24 H :    0.111610
  25 H :    0.104929
  26 H :    0.111611
  27 H :    0.104928
  28 H :    0.108292
  29 H :    0.112174
  30 H :    0.113165
  31 H :    0.107766
Sum of atomic charges:    0.0000000

LOEWDIN ATOMIC CHARGES
----------------------
   0 C :    0.107990
   1 C :    0.057898
   2 C :   -0.067014
   3 C :    0.114016
   4 C :   -0.067014
   5 C :    0.112809
   6 C :    0.112807
   7 C :    0.057895
   8 C :    0.107990
   9 C :    0.114020
  10 H :   -0.028456
  11 H :   -0.034416
  12 H :   -0.032289
  13 H :   -0.025296
  14 H :   -0.028203
  15 H :   -0.028199
  16 H :   -0.025297
  17 H :   -0.028455
  18 H :   -0.034417
  19 H :   -0.032291
  20 H :   -0.031369
  21 H :   -0.028493
  22 H :   -0.026905
  23 H :   -0.028057
  24 H :   -0.029664
  25 H :   -0.032549
  26 H :   -0.029665
  27 H :   -0.032548
  28 H :   -0.028059
  29 H :   -0.026904
  30 H :   -0.031371
  31 H :   -0.028493

  Mayer bond orders larger than 0.1
B(  0-C ,  1-C ) :   0.9547 B(  0-C , 10-H ) :   0.9878 B(  0-C , 11-H ) :   0.9826
B(  0-C , 12-H ) :   0.9839 B(  1-C ,  2-C ) :   0.9518 B(  1-C , 13-H ) :   0.9857
B(  1-C , 14-H ) :   0.9820 B(  2-C ,  3-C ) :   0.9435 B(  2-C ,  4-C ) :   0.9786
B(  2-C ,  6-C ) :   0.9366 B(  3-C , 23-H ) :   0.9849 B(  3-C , 24-H ) :   0.9848
B(  3-C , 25-H ) :   0.9828 B(  4-C ,  5-C ) :   0.9366 B(  4-C ,  7-C ) :   0.9518
B(  4-C ,  9-C ) :   0.9435 B(  5-C , 29-H ) :   0.9862 B(  5-C , 30-H ) :   0.9846
B(  5-C , 31-H ) :   0.9844 B(  6-C , 20-H ) :   0.9846 B(  6-C , 21-H ) :   0.9844
B(  6-C , 22-H ) :   0.9862 B(  7-C ,  8-C ) :   0.9547 B(  7-C , 15-H ) :   0.9820
B(  7-C , 16-H ) :   0.9857 B(  8-C , 17-H ) :   0.9878 B(  8-C , 18-H ) :   0.9826
B(  8-C , 19-H ) :   0.9839 B(  9-C , 26-H ) :   0.9848 B(  9-C , 27-H ) :   0.9828
B(  9-C , 28-H ) :   0.9849

E(0)                                       ...   -391.609897224
E(0)                                       ...   -391.609897224
E(CORR)(strong-pairs)                      ...     -1.897881776
E(CORR)(weak-pairs)                        ...     -0.002447315
E(CORR)(corrected)                         ...     -1.900329092
E(TOT)                                     ...   -393.510226315
E(CCSD(T))                                 ...   -393.585999420
FINAL SINGLE POINT ENERGY      -393.585999420462

DIPOLE MOMENT
-------------
                                X             Y             Z
Electronic contribution:      0.00003      -0.26962       0.00007
Nuclear contribution   :     -0.00003       0.23058      -0.00006
                        -----------------------------------------
Total Dipole Moment    :     -0.00000      -0.03904       0.00000
                        -----------------------------------------
Magnitude (a.u.)       :      0.03904
Magnitude (Debye)      :      0.09923

Rotational constants in cm-1:     0.060057     0.029128     0.027158
Rotational constants in MHz :  1800.461435   873.234286   814.165646

                             ****ORCA TERMINATED NORMALLY****
TOTAL RUN TIME: 0 days 0 hours 51 minutes 29 seconds 396 msec
