                         Program Version 4.1.x  -  STABLE  -
|  1> ! RHF DLPNO-CCSD(T) cc-pVTZ RIJK cc-pVTZ/JK cc-pVTZ/C
|  2> ! KDIIS SOSCF TightSCF TightPNO
|  3>
|  4> %pal nprocs 8 end
|  5>
|  6> %maxcore 8000
|  7>
|  8> %scf maxiter 300
|  9>      shift shift 0.2 erroff 0.1 end
| 10> end
| 11>
| 12> * xyzfile 0 1 trans1_2difluorocycloh_ax_ax.xyz
| 13>
| 14>
| 15>                          ****END OF INPUT****

CARTESIAN COORDINATES (ANGSTROEM)
---------------------------------
  C      1.625200   -0.745810    0.186930
  C      1.625440    0.745320   -0.186890
  C      0.357830    1.122200   -0.971510
  C     -0.916330    0.728830   -0.237440
  C     -0.916570   -0.728550    0.237410
  C      0.357420   -1.122310    0.971550
  F     -1.050650    1.523770    0.930110
  F     -1.051050   -1.523460   -0.930150
  H      0.323770    2.197060   -1.181320
  H      0.348850    0.604110   -1.939260
  H     -1.806590    0.919580   -0.845180
  H     -1.806930   -0.919020    0.845090
  H      1.682250    1.354050    0.724400
  H      2.511470    0.988020   -0.784460
  H      0.323010   -2.197150    1.181350
  H      0.348520   -0.604210    1.939300
  H      1.681840   -1.354540   -0.724380
  H      2.511150   -0.988790    0.784510

 Total Charge           Charge          ....    0
 Multiplicity           Mult            ....    1
 Number of Electrons    NEL             ....   64
 Basis Dimension        Dim             ....  380

ORBITAL ENERGIES
----------------

  NO   OCC          E(Eh)            E(eV)
   0   2.0000     -26.274923      -714.9770
   1   2.0000     -26.274921      -714.9769
   2   2.0000     -11.318433      -307.9902
   3   2.0000     -11.317813      -307.9733
   4   2.0000     -11.233594      -305.6816
   5   2.0000     -11.233589      -305.6815
   6   2.0000     -11.228627      -305.5465
   7   2.0000     -11.228035      -305.5304
   8   2.0000      -1.583318       -43.0843
   9   2.0000      -1.577535       -42.9269
  10   2.0000      -1.122504       -30.5449
  11   2.0000      -1.023761       -27.8579
  12   2.0000      -1.014085       -27.5947
  13   2.0000      -0.860156       -23.4060
  14   2.0000      -0.855297       -23.2738
  15   2.0000      -0.767784       -20.8925
  16   2.0000      -0.722441       -19.6586
  17   2.0000      -0.698839       -19.0164
  18   2.0000      -0.694232       -18.8910
  19   2.0000      -0.673912       -18.3381
  20   2.0000      -0.633011       -17.2251
  21   2.0000      -0.616784       -16.7835
  22   2.0000      -0.611993       -16.6532
  23   2.0000      -0.599914       -16.3245
  24   2.0000      -0.575320       -15.6553
  25   2.0000      -0.539592       -14.6830
  26   2.0000      -0.527268       -14.3477
  27   2.0000      -0.519194       -14.1280
  28   2.0000      -0.512764       -13.9530
  29   2.0000      -0.472103       -12.8466
  30   2.0000      -0.450584       -12.2610
  31   2.0000      -0.446590       -12.1523
  32   0.0000       0.138073         3.7572
  33   0.0000       0.160955         4.3798
  34   0.0000       0.162515         4.4223
  35   0.0000       0.175630         4.7791
  36   0.0000       0.195713         5.3256

MULLIKEN ATOMIC CHARGES
-----------------------
   0 C :   -0.203406
   1 C :   -0.203400
   2 C :   -0.208325
   3 C :    0.202087
   4 C :    0.202088
   5 C :   -0.208332
   6 F :   -0.340918
   7 F :   -0.340923
   8 H :    0.116961
   9 H :    0.105350
  10 H :    0.111921
  11 H :    0.111924
  12 H :    0.101941
  13 H :    0.114387
  14 H :    0.116968
  15 H :    0.105351
  16 H :    0.101941
  17 H :    0.114387
Sum of atomic charges:    0.0000000

LOEWDIN ATOMIC CHARGES
----------------------
   0 C :    0.063118
   1 C :    0.063103
   2 C :    0.059605
   3 C :   -0.100780
   4 C :   -0.100780
   5 C :    0.059618
   6 F :    0.080470
   7 F :    0.080462
   8 H :   -0.018279
   9 H :   -0.013673
  10 H :   -0.022791
  11 H :   -0.022791
  12 H :   -0.023372
  13 H :   -0.024289
  14 H :   -0.018287
  15 H :   -0.013673
  16 H :   -0.023370
  17 H :   -0.024293

  Mayer bond orders larger than 0.1
B(  0-C ,  1-C ) :   0.9516 B(  0-C ,  5-C ) :   0.9472 B(  0-C , 16-H ) :   0.9807
B(  0-C , 17-H ) :   0.9931 B(  1-C ,  2-C ) :   0.9472 B(  1-C , 12-H ) :   0.9807
B(  1-C , 13-H ) :   0.9931 B(  2-C ,  3-C ) :   0.9618 B(  2-C ,  8-H ) :   0.9879
B(  2-C ,  9-H ) :   0.9725 B(  3-C ,  4-C ) :   0.9683 B(  3-C ,  6-F ) :   0.9099
B(  3-C , 10-H ) :   1.0022 B(  4-C ,  5-C ) :   0.9618 B(  4-C ,  7-F ) :   0.9099
B(  4-C , 11-H ) :   1.0022 B(  5-C , 14-H ) :   0.9878 B(  5-C , 15-H ) :   0.9725

E(0)                                       ...   -432.072214601
E(0)                                       ...   -432.072214601
E(CORR)(strong-pairs)                      ...     -1.570126328
E(CORR)(weak-pairs)                        ...     -0.001540453
E(CORR)(corrected)                         ...     -1.571666781
E(TOT)                                     ...   -433.643881382
E(CCSD(T))                                 ...   -433.701478122
FINAL SINGLE POINT ENERGY      -433.701478121718

DIPOLE MOMENT
-------------
                                X             Y             Z
Electronic contribution:     -7.81863       0.00115      -0.00008
Nuclear contribution   :      8.19669      -0.00119       0.00009
                        -----------------------------------------
Total Dipole Moment    :      0.37806      -0.00005       0.00001
                        -----------------------------------------
Magnitude (a.u.)       :      0.37806
Magnitude (Debye)      :      0.96094

Rotational constants in cm-1:     0.075249     0.071956     0.053114
Rotational constants in MHz :  2255.901056  2157.176081  1592.308339

                             ****ORCA TERMINATED NORMALLY****
TOTAL RUN TIME: 0 days 0 hours 12 minutes 0 seconds 753 msec
