                         Program Version 4.1.x  -  STABLE  -
|  1> ! RHF DLPNO-CCSD(T) cc-pVTZ RIJK cc-pVTZ/JK cc-pVTZ/C
|  2> ! KDIIS SOSCF TightSCF TightPNO
|  3>
|  4> %pal nprocs 8 end
|  5>
|  6> %maxcore 8000
|  7>
|  8> %scf maxiter 300
|  9>      shift shift 0.2 erroff 0.1 end
| 10> end
| 11>
| 12> * xyzfile 0 1 trans1_2dichlorocycloh_eq_eq.xyz
| 13>
| 14>
| 15>                          ****END OF INPUT****

CARTESIAN COORDINATES (ANGSTROEM)
---------------------------------
  C      2.377860    0.681540    0.351610
  C      2.377860   -0.681530   -0.351600
  C      1.107910   -1.474520   -0.005360
  C     -0.163230   -0.683480   -0.343650
  C     -0.163220    0.683470    0.343650
  C      1.107900    1.474530    0.005350
  Cl    -1.620810   -1.672080    0.141310
  Cl    -1.620810    1.672080   -0.141310
  H      1.099350   -1.712470    1.065820
  H      1.080660   -2.428040   -0.541900
  H     -0.260040   -0.548360   -1.424230
  H     -0.260050    0.548370    1.424230
  H      3.259550   -1.266200   -0.065120
  H      2.438970   -0.534080   -1.438900
  H      1.099350    1.712460   -1.065830
  H      1.080640    2.428050    0.541880
  H      3.259540    1.266210    0.065110
  H      2.438990    0.534070    1.438900

 Total Charge           Charge          ....    0
 Multiplicity           Mult            ....    1
 Number of Electrons    NEL             ....   80
 Basis Dimension        Dim             ....  388

ORBITAL ENERGIES
----------------

  NO   OCC          E(Eh)            E(eV)
   0   2.0000    -104.818902     -2852.2673
   1   2.0000    -104.818898     -2852.2672
   2   2.0000     -11.312786      -307.8366
   3   2.0000     -11.312166      -307.8197
   4   2.0000     -11.247449      -306.0586
   5   2.0000     -11.247446      -306.0586
   6   2.0000     -11.242581      -305.9262
   7   2.0000     -11.241981      -305.9098
   8   2.0000     -10.543857      -286.9129
   9   2.0000     -10.543853      -286.9128
  10   2.0000      -8.010541      -217.9779
  11   2.0000      -8.010538      -217.9778
  12   2.0000      -8.008873      -217.9325
  13   2.0000      -8.008870      -217.9324
  14   2.0000      -8.008844      -217.9317
  15   2.0000      -8.008841      -217.9316
  16   2.0000      -1.182500       -32.1775
  17   2.0000      -1.105761       -30.0893
  18   2.0000      -1.092530       -29.7293
  19   2.0000      -1.009933       -27.4817
  20   2.0000      -0.979146       -26.6439
  21   2.0000      -0.855119       -23.2690
  22   2.0000      -0.834368       -22.7043
  23   2.0000      -0.786246       -21.3949
  24   2.0000      -0.662301       -18.0221
  25   2.0000      -0.638408       -17.3720
  26   2.0000      -0.632403       -17.2086
  27   2.0000      -0.615707       -16.7542
  28   2.0000      -0.578151       -15.7323
  29   2.0000      -0.552286       -15.0285
  30   2.0000      -0.546677       -14.8758
  31   2.0000      -0.526824       -14.3356
  32   2.0000      -0.518857       -14.1188
  33   2.0000      -0.484543       -13.1851
  34   2.0000      -0.471818       -12.8388
  35   2.0000      -0.471177       -12.8214
  36   2.0000      -0.441679       -12.0187
  37   2.0000      -0.437683       -11.9100
  38   2.0000      -0.426984       -11.6188
  39   2.0000      -0.419706       -11.4208
  40   0.0000       0.118655         3.2288
  41   0.0000       0.139444         3.7945
  42   0.0000       0.156968         4.2713
  43   0.0000       0.165181         4.4948
  44   0.0000       0.193532         5.2663

MULLIKEN ATOMIC CHARGES
-----------------------
   0 C :   -0.207653
   1 C :   -0.207648
   2 C :   -0.193404
   3 C :    0.004707
   4 C :    0.004705
   5 C :   -0.193406
   6 Cl:   -0.219548
   7 Cl:   -0.219560
   8 H :    0.110226
   9 H :    0.133617
  10 H :    0.151552
  11 H :    0.151556
  12 H :    0.121343
  13 H :    0.099157
  14 H :    0.110229
  15 H :    0.133621
  16 H :    0.121343
  17 H :    0.099163
Sum of atomic charges:   -0.0000000

LOEWDIN ATOMIC CHARGES
----------------------
   0 C :    0.061410
   1 C :    0.061403
   2 C :    0.044148
   3 C :   -0.178530
   4 C :   -0.178518
   5 C :    0.044153
   6 Cl:    0.183576
   7 Cl:    0.183559
   8 H :   -0.019662
   9 H :   -0.017404
  10 H :   -0.029315
  11 H :   -0.029316
  12 H :   -0.020745
  13 H :   -0.023470
  14 H :   -0.019662
  15 H :   -0.017406
  16 H :   -0.020747
  17 H :   -0.023473

  Mayer bond orders larger than 0.1
B(  0-C ,  1-C ) :   0.9390 B(  0-C ,  5-C ) :   0.9405 B(  0-C , 16-H ) :   0.9910
B(  0-C , 17-H ) :   0.9824 B(  1-C ,  2-C ) :   0.9405 B(  1-C , 12-H ) :   0.9910
B(  1-C , 13-H ) :   0.9824 B(  2-C ,  3-C ) :   0.9442 B(  2-C ,  8-H ) :   0.9763
B(  2-C ,  9-H ) :   0.9860 B(  3-C ,  4-C ) :   0.9425 B(  3-C ,  6-Cl) :   0.9763
B(  3-C , 10-H ) :   0.9647 B(  4-C ,  5-C ) :   0.9442 B(  4-C ,  7-Cl) :   0.9763
B(  4-C , 11-H ) :   0.9647 B(  5-C , 14-H ) :   0.9763 B(  5-C , 15-H ) :   0.9860

E(0)                                       ...  -1152.163257376
E(0)                                       ...  -1152.163257376
E(CORR)(strong-pairs)                      ...     -1.480407499
E(CORR)(weak-pairs)                        ...     -0.001457981
E(CORR)(corrected)                         ...     -1.481865480
E(TOT)                                     ...  -1153.645122857
E(CCSD(T))                                 ...  -1153.707873170
FINAL SINGLE POINT ENERGY     -1153.707873170386

DIPOLE MOMENT
-------------
                                X             Y             Z
Electronic contribution:    -17.89203      -0.00002       0.00004
Nuclear contribution   :     19.51021       0.00000      -0.00004
                        -----------------------------------------
Total Dipole Moment    :      1.61818      -0.00002       0.00000
                        -----------------------------------------
Magnitude (a.u.)       :      1.61818
Magnitude (Debye)      :      4.11310

Rotational constants in cm-1:     0.053783     0.041485     0.024678
Rotational constants in MHz :  1612.368439  1243.675030   739.826439

                             ****ORCA TERMINATED NORMALLY****
TOTAL RUN TIME: 0 days 0 hours 13 minutes 58 seconds 295 msec
