                         Program Version 4.1.x  -  STABLE  -
|  1> ! RHF DLPNO-CCSD(T) cc-pVTZ RIJK cc-pVTZ/JK cc-pVTZ/C
|  2> ! KDIIS SOSCF TightSCF TightPNO
|  3>
|  4> %pal nprocs 8 end
|  5>
|  6> %maxcore 8000
|  7>
|  8> %scf maxiter 300
|  9>      shift shift 0.2 erroff 0.1 end
| 10> end
| 11>
| 12> * xyzfile 0 1 trans1_2dimethylcycloh_ax_ax.xyz
| 13>
| 14>
| 15>                          ****END OF INPUT****

CARTESIAN COORDINATES (ANGSTROEM)
---------------------------------
  C     -0.710500    1.683320   -0.290520
  C      0.712150    1.682610    0.290570
  C      0.978910    0.407880    1.108840
  C      0.711450   -0.891690    0.313350
  C     -0.712300   -0.891000   -0.313370
  C     -0.978550    0.408860   -1.108790
  C      1.804580   -1.157000   -0.737670
  C     -1.805690   -1.155440    0.737610
  H      0.339340    0.423070    2.001840
  H      2.013290    0.403300    1.476710
  H      0.752300   -1.727250    1.027330
  H     -0.753910   -1.726470   -1.027420
  H      0.866430    2.567460    0.920760
  H      1.438860    1.760390   -0.529850
  H     -0.338980    0.423460   -2.001810
  H     -2.012940    0.405290   -1.476640
  H     -0.863900    2.568330   -0.920700
  H     -1.437130    1.761830    0.529910
  H      1.634540   -2.114430   -1.243720
  H      1.841780   -0.380520   -1.508800
  H      2.793980   -1.200080   -0.267460
  H     -1.636530   -2.113070    1.243570
  H     -1.842230   -0.379000    1.508820
  H     -2.795130   -1.197580    0.267370

 Total Charge           Charge          ....    0
 Multiplicity           Mult            ....    1
 Number of Electrons    NEL             ....   64
 Basis Dimension        Dim             ....  464

ORBITAL ENERGIES
----------------

  NO   OCC          E(Eh)            E(eV)
   0   2.0000     -11.220876      -305.3356
   1   2.0000     -11.220320      -305.3204
   2   2.0000     -11.213530      -305.1357
   3   2.0000     -11.213027      -305.1220
   4   2.0000     -11.212420      -305.1055
   5   2.0000     -11.212333      -305.1031
   6   2.0000     -11.208169      -304.9898
   7   2.0000     -11.208165      -304.9897
   8   2.0000      -1.118027       -30.4231
   9   2.0000      -1.024194       -27.8697
  10   2.0000      -1.014953       -27.6183
  11   2.0000      -0.945237       -25.7212
  12   2.0000      -0.884224       -24.0610
  13   2.0000      -0.809889       -22.0382
  14   2.0000      -0.809134       -22.0176
  15   2.0000      -0.706301       -19.2194
  16   2.0000      -0.651285       -17.7224
  17   2.0000      -0.618047       -16.8179
  18   2.0000      -0.606279       -16.4977
  19   2.0000      -0.576089       -15.6762
  20   2.0000      -0.560934       -15.2638
  21   2.0000      -0.549343       -14.9484
  22   2.0000      -0.545328       -14.8391
  23   2.0000      -0.535650       -14.5758
  24   2.0000      -0.501070       -13.6348
  25   2.0000      -0.493387       -13.4257
  26   2.0000      -0.477537       -12.9944
  27   2.0000      -0.468276       -12.7424
  28   2.0000      -0.466071       -12.6824
  29   2.0000      -0.430794       -11.7225
  30   2.0000      -0.417733       -11.3671
  31   2.0000      -0.413965       -11.2646
  32   0.0000       0.134059         3.6479
  33   0.0000       0.155483         4.2309
  34   0.0000       0.163269         4.4428
  35   0.0000       0.164925         4.4878
  36   0.0000       0.193361         5.2616

MULLIKEN ATOMIC CHARGES
-----------------------
   0 C :   -0.202637
   1 C :   -0.202648
   2 C :   -0.213450
   3 C :   -0.080604
   4 C :   -0.080608
   5 C :   -0.213453
   6 C :   -0.314919
   7 C :   -0.314911
   8 H :    0.102303
   9 H :    0.108439
  10 H :    0.106159
  11 H :    0.106154
  12 H :    0.111695
  13 H :    0.090602
  14 H :    0.102297
  15 H :    0.108444
  16 H :    0.111694
  17 H :    0.090597
  18 H :    0.100603
  19 H :    0.091767
  20 H :    0.100055
  21 H :    0.100606
  22 H :    0.091765
  23 H :    0.100049
Sum of atomic charges:   -0.0000000

LOEWDIN ATOMIC CHARGES
----------------------
   0 C :    0.057866
   1 C :    0.057869
   2 C :    0.063534
   3 C :   -0.006590
   4 C :   -0.006592
   5 C :    0.063532
   6 C :    0.111633
   7 C :    0.111629
   8 H :   -0.027265
   9 H :   -0.026556
  10 H :   -0.022974
  11 H :   -0.022971
  12 H :   -0.027614
  13 H :   -0.029396
  14 H :   -0.027261
  15 H :   -0.026557
  16 H :   -0.027614
  17 H :   -0.029394
  18 H :   -0.029178
  19 H :   -0.034696
  20 H :   -0.028767
  21 H :   -0.029180
  22 H :   -0.034695
  23 H :   -0.028763

  Mayer bond orders larger than 0.1
B(  0-C ,  1-C ) :   0.9454 B(  0-C ,  5-C ) :   0.9453 B(  0-C , 16-H ) :   0.9945
B(  0-C , 17-H ) :   0.9847 B(  1-C ,  2-C ) :   0.9453 B(  1-C , 12-H ) :   0.9945
B(  1-C , 13-H ) :   0.9847 B(  2-C ,  3-C ) :   0.9461 B(  2-C ,  8-H ) :   0.9892
B(  2-C ,  9-H ) :   0.9944 B(  3-C ,  4-C ) :   0.9458 B(  3-C ,  6-C ) :   0.9499
B(  3-C , 10-H ) :   0.9959 B(  4-C ,  5-C ) :   0.9461 B(  4-C ,  7-C ) :   0.9499
B(  4-C , 11-H ) :   0.9959 B(  5-C , 14-H ) :   0.9892 B(  5-C , 15-H ) :   0.9944
B(  6-C , 18-H ) :   0.9869 B(  6-C , 19-H ) :   0.9797 B(  6-C , 20-H ) :   0.9875
B(  7-C , 21-H ) :   0.9869 B(  7-C , 22-H ) :   0.9797 B(  7-C , 23-H ) :   0.9875

E(0)                                       ...   -312.373857055
E(0)                                       ...   -312.373857055
E(CORR)(strong-pairs)                      ...     -1.477789540
E(CORR)(weak-pairs)                        ...     -0.001637008
E(CORR)(corrected)                         ...     -1.479426548
E(TOT)                                     ...   -313.853283603
E(CCSD(T))                                 ...   -313.912634939
FINAL SINGLE POINT ENERGY      -313.912634938679

DIPOLE MOMENT
-------------
                                X             Y             Z
Electronic contribution:      0.00027       0.55258       0.00010
Nuclear contribution   :     -0.00027      -0.56262      -0.00010
                        -----------------------------------------
Total Dipole Moment    :      0.00000      -0.01004      -0.00000
                        -----------------------------------------
Magnitude (a.u.)       :      0.01004
Magnitude (Debye)      :      0.02553

Rotational constants in cm-1:     0.072239     0.070084     0.050999
Rotational constants in MHz :  2165.682481  2101.050863  1528.900332

                             ****ORCA TERMINATED NORMALLY****
TOTAL RUN TIME: 0 days 0 hours 21 minutes 41 seconds 157 msec
