                         Program Version 4.1.x  -  STABLE  -
|  1> ! RHF DLPNO-CCSD(T) cc-pVTZ RIJK cc-pVTZ/JK cc-pVTZ/C
|  2> ! KDIIS SOSCF TightSCF TightPNO
|  3>
|  4> %pal nprocs 8 end
|  5>
|  6> %maxcore 8000
|  7>
|  8> %scf maxiter 300
|  9>      shift shift 0.2 erroff 0.1 end
| 10> end
| 11>
| 12> * xyzfile 0 1 trans1_2dichlorocycloh_ax_ax.xyz
| 13>
| 14>
| 15>                          ****END OF INPUT****

CARTESIAN COORDINATES (ANGSTROEM)
---------------------------------
  C     -0.588270    1.902130   -0.494610
  C      0.588580    1.902020    0.494630
  C      0.591140    0.633740    1.361340
  C      0.547680   -0.654700    0.538660
  C     -0.547770   -0.654640   -0.538640
  C     -0.591110    0.633820   -1.361300
  Cl     2.159380   -0.926150   -0.320240
  Cl    -2.159510   -0.925980    0.320210
  H     -0.299790    0.625160    2.002980
  H      1.461440    0.608310    2.024420
  H      0.443840   -1.530600    1.179040
  H     -0.443990   -1.530530   -1.179050
  H      0.538440    2.783300    1.144160
  H      1.535130    1.969550   -0.056190
  H      0.299730    0.625100   -2.003070
  H     -1.461490    0.608540   -2.024270
  H     -0.537920    2.783370   -1.144160
  H     -1.534810    1.969900    0.056200

 Total Charge           Charge          ....    0
 Multiplicity           Mult            ....    1
 Number of Electrons    NEL             ....   80
 Basis Dimension        Dim             ....  388

ORBITAL ENERGIES
----------------

  NO   OCC          E(Eh)            E(eV)
   0   2.0000    -104.824691     -2852.4248
   1   2.0000    -104.824690     -2852.4248
   2   2.0000     -11.315759      -307.9175
   3   2.0000     -11.315157      -307.9011
   4   2.0000     -11.242161      -305.9147
   5   2.0000     -11.242156      -305.9146
   6   2.0000     -11.232081      -305.6405
   7   2.0000     -11.231489      -305.6243
   8   2.0000     -10.549682      -287.0714
   9   2.0000     -10.549680      -287.0714
  10   2.0000      -8.016324      -218.1353
  11   2.0000      -8.016323      -218.1352
  12   2.0000      -8.014742      -218.0922
  13   2.0000      -8.014742      -218.0922
  14   2.0000      -8.014701      -218.0911
  15   2.0000      -8.014701      -218.0911
  16   2.0000      -1.182642       -32.1813
  17   2.0000      -1.108934       -30.1756
  18   2.0000      -1.077955       -29.3327
  19   2.0000      -1.015958       -27.6456
  20   2.0000      -0.977550       -26.6005
  21   2.0000      -0.854104       -23.2413
  22   2.0000      -0.846819       -23.0431
  23   2.0000      -0.739675       -20.1276
  24   2.0000      -0.690219       -18.7818
  25   2.0000      -0.641929       -17.4678
  26   2.0000      -0.623471       -16.9655
  27   2.0000      -0.594843       -16.1865
  28   2.0000      -0.573741       -15.6123
  29   2.0000      -0.563897       -15.3444
  30   2.0000      -0.560686       -15.2570
  31   2.0000      -0.511099       -13.9077
  32   2.0000      -0.505305       -13.7501
  33   2.0000      -0.476016       -12.9531
  34   2.0000      -0.473270       -12.8783
  35   2.0000      -0.465550       -12.6683
  36   2.0000      -0.451990       -12.2993
  37   2.0000      -0.435052       -11.8384
  38   2.0000      -0.433804       -11.8044
  39   2.0000      -0.426695       -11.6110
  40   0.0000       0.131871         3.5884
  41   0.0000       0.150332         4.0907
  42   0.0000       0.156268         4.2523
  43   0.0000       0.163458         4.4479
  44   0.0000       0.176074         4.7912

MULLIKEN ATOMIC CHARGES
-----------------------
   0 C :   -0.205561
   1 C :   -0.205559
   2 C :   -0.190056
   3 C :   -0.014266
   4 C :   -0.014267
   5 C :   -0.190064
   6 Cl:   -0.237406
   7 Cl:   -0.237403
   8 H :    0.122692
   9 H :    0.129664
  10 H :    0.167689
  11 H :    0.167688
  12 H :    0.117953
  13 H :    0.109291
  14 H :    0.122696
  15 H :    0.129665
  16 H :    0.117957
  17 H :    0.109288
Sum of atomic charges:   -0.0000000

LOEWDIN ATOMIC CHARGES
----------------------
   0 C :    0.061473
   1 C :    0.061464
   2 C :    0.044807
   3 C :   -0.156405
   4 C :   -0.156413
   5 C :    0.044811
   6 Cl:    0.163164
   7 Cl:    0.163164
   8 H :   -0.016680
   9 H :   -0.018825
  10 H :   -0.029150
  11 H :   -0.029148
  12 H :   -0.022663
  13 H :   -0.025713
  14 H :   -0.016679
  15 H :   -0.018829
  16 H :   -0.022668
  17 H :   -0.025710

  Mayer bond orders larger than 0.1
B(  0-C ,  1-C ) :   0.9473 B(  0-C ,  5-C ) :   0.9466 B(  0-C , 16-H ) :   0.9914
B(  0-C , 17-H ) :   0.9799 B(  1-C ,  2-C ) :   0.9466 B(  1-C , 12-H ) :   0.9914
B(  1-C , 13-H ) :   0.9799 B(  2-C ,  3-C ) :   0.9433 B(  2-C ,  8-H ) :   0.9721
B(  2-C ,  9-H ) :   0.9847 B(  3-C ,  4-C ) :   0.9432 B(  3-C ,  6-Cl) :   0.9422
B(  3-C , 10-H ) :   0.9832 B(  4-C ,  5-C ) :   0.9433 B(  4-C ,  7-Cl) :   0.9422
B(  4-C , 11-H ) :   0.9832 B(  5-C , 14-H ) :   0.9721 B(  5-C , 15-H ) :   0.9847

E(0)                                       ...  -1152.163784436
E(0)                                       ...  -1152.163784436
E(CORR)(strong-pairs)                      ...     -1.481039259
E(CORR)(weak-pairs)                        ...     -0.001479555
E(CORR)(corrected)                         ...     -1.482518814
E(TOT)                                     ...  -1153.646303250
E(CCSD(T))                                 ...  -1153.709287319
FINAL SINGLE POINT ENERGY     -1153.709287318579

DIPOLE MOMENT
-------------
                                X             Y             Z
Electronic contribution:     -0.00073     -10.82913      -0.00009
Nuclear contribution   :      0.00076      11.34987       0.00010
                        -----------------------------------------
Total Dipole Moment    :      0.00003       0.52073       0.00001
                        -----------------------------------------
Magnitude (a.u.)       :      0.52073
Magnitude (Debye)      :      1.32360

Rotational constants in cm-1:     0.059640     0.037360     0.030020
Rotational constants in MHz :  1787.974145  1120.032616   899.962537

                             ****ORCA TERMINATED NORMALLY****
TOTAL RUN TIME: 0 days 0 hours 17 minutes 59 seconds 232 msec
