                         Program Version 4.1.x  -  STABLE  -
|  1> ! RHF DLPNO-CCSD(T) cc-pVTZ RIJK cc-pVTZ/JK cc-pVTZ/C
|  2> ! KDIIS SOSCF TightSCF TightPNO
|  3>
|  4> %pal nprocs 8 end
|  5>
|  6> %maxcore 8000
|  7>
|  8> %scf maxiter 300
|  9>      shift shift 0.2 erroff 0.1 end
| 10> end
| 11>
| 12> * xyzfile 0 1 trans1_2dimethylcycloh_eq_eq.xyz
| 13>
| 14>
| 15>                          ****END OF INPUT****

CARTESIAN COORDINATES (ANGSTROEM)
---------------------------------
  C      1.949070   -0.710770   -0.289180
  C      1.949090    0.710770    0.289200
  C      0.673850    1.466680   -0.106830
  C     -0.616830    0.719960    0.288390
  C     -0.616840   -0.719950   -0.288390
  C      0.673840   -1.466690    0.106800
  C     -1.850780    1.535660   -0.126500
  C     -1.850790   -1.535650    0.126510
  H      0.670080    1.625440   -1.196400
  H      0.669890    2.465400    0.349260
  H     -0.624750    0.627990    1.387560
  H     -0.624770   -0.627980   -1.387570
  H      2.836110    1.262470   -0.046700
  H      2.012250    0.655210    1.385900
  H      0.670080   -1.625470    1.196380
  H      0.669870   -2.465410   -0.349280
  H      2.836080   -1.262490    0.046720
  H      2.012220   -0.655220   -1.385890
  H     -1.784050    2.559960    0.258220
  H     -1.929110    1.598100   -1.219700
  H     -2.782210    1.104140    0.251650
  H     -1.784060   -2.559960   -0.258190
  H     -1.929120   -1.598070    1.219710
  H     -2.782220   -1.104130   -0.251650

 Total Charge           Charge          ....    0
 Multiplicity           Mult            ....    1
 Number of Electrons    NEL             ....   64
 Basis Dimension        Dim             ....  464

ORBITAL ENERGIES
----------------

  NO   OCC          E(Eh)            E(eV)
   0   2.0000     -11.221135      -305.3426
   1   2.0000     -11.220568      -305.3272
   2   2.0000     -11.213918      -305.1462
   3   2.0000     -11.213374      -305.1314
   4   2.0000     -11.212533      -305.1085
   5   2.0000     -11.212481      -305.1071
   6   2.0000     -11.208288      -304.9930
   7   2.0000     -11.208285      -304.9929
   8   2.0000      -1.119250       -30.4564
   9   2.0000      -1.030457       -28.0402
  10   2.0000      -1.018071       -27.7031
  11   2.0000      -0.934635       -25.4327
  12   2.0000      -0.892190       -24.2777
  13   2.0000      -0.809991       -22.0410
  14   2.0000      -0.789246       -21.4765
  15   2.0000      -0.744797       -20.2670
  16   2.0000      -0.626209       -17.0400
  17   2.0000      -0.609357       -16.5814
  18   2.0000      -0.604585       -16.4516
  19   2.0000      -0.591261       -16.0890
  20   2.0000      -0.584989       -15.9184
  21   2.0000      -0.544238       -14.8095
  22   2.0000      -0.530385       -14.4325
  23   2.0000      -0.514527       -14.0010
  24   2.0000      -0.506854       -13.7922
  25   2.0000      -0.502402       -13.6711
  26   2.0000      -0.478367       -13.0170
  27   2.0000      -0.468152       -12.7391
  28   2.0000      -0.462481       -12.5847
  29   2.0000      -0.443159       -12.0590
  30   2.0000      -0.416652       -11.3377
  31   2.0000      -0.416343       -11.3293
  32   0.0000       0.143474         3.9041
  33   0.0000       0.152232         4.1425
  34   0.0000       0.154831         4.2132
  35   0.0000       0.161052         4.3825
  36   0.0000       0.193975         5.2783

MULLIKEN ATOMIC CHARGES
-----------------------
   0 C :   -0.194234
   1 C :   -0.194242
   2 C :   -0.195623
   3 C :   -0.063059
   4 C :   -0.063059
   5 C :   -0.195618
   6 C :   -0.321176
   7 C :   -0.321174
   8 H :    0.085525
   9 H :    0.104884
  10 H :    0.095921
  11 H :    0.095915
  12 H :    0.107451
  13 H :    0.086149
  14 H :    0.085513
  15 H :    0.104890
  16 H :    0.107447
  17 H :    0.086141
  18 H :    0.101058
  19 H :    0.089410
  20 H :    0.103706
  21 H :    0.101058
  22 H :    0.089411
  23 H :    0.103705
Sum of atomic charges:   -0.0000000

LOEWDIN ATOMIC CHARGES
----------------------
   0 C :    0.056845
   1 C :    0.056855
   2 C :    0.061321
   3 C :   -0.012134
   4 C :   -0.012134
   5 C :    0.061313
   6 C :    0.112215
   7 C :    0.112213
   8 H :   -0.025451
   9 H :   -0.025927
  10 H :   -0.024132
  11 H :   -0.024129
  12 H :   -0.027470
  13 H :   -0.027200
  14 H :   -0.025446
  15 H :   -0.025928
  16 H :   -0.027469
  17 H :   -0.027196
  18 H :   -0.027840
  19 H :   -0.028499
  20 H :   -0.031735
  21 H :   -0.027839
  22 H :   -0.028501
  23 H :   -0.031734

  Mayer bond orders larger than 0.1
B(  0-C ,  1-C ) :   0.9463 B(  0-C ,  5-C ) :   0.9568 B(  0-C , 16-H ) :   0.9960
B(  0-C , 17-H ) :   0.9851 B(  1-C ,  2-C ) :   0.9568 B(  1-C , 12-H ) :   0.9960
B(  1-C , 13-H ) :   0.9851 B(  2-C ,  3-C ) :   0.9558 B(  2-C ,  8-H ) :   0.9799
B(  2-C ,  9-H ) :   0.9950 B(  3-C ,  4-C ) :   0.9563 B(  3-C ,  6-C ) :   0.9565
B(  3-C , 10-H ) :   0.9731 B(  4-C ,  5-C ) :   0.9558 B(  4-C ,  7-C ) :   0.9565
B(  4-C , 11-H ) :   0.9731 B(  5-C , 14-H ) :   0.9799 B(  5-C , 15-H ) :   0.9950
B(  6-C , 18-H ) :   0.9882 B(  6-C , 19-H ) :   0.9796 B(  6-C , 20-H ) :   0.9873
B(  7-C , 21-H ) :   0.9882 B(  7-C , 22-H ) :   0.9796 B(  7-C , 23-H ) :   0.9873

E(0)                                       ...   -312.379289382
E(0)                                       ...   -312.379289382
E(CORR)(strong-pairs)                      ...     -1.476573311
E(CORR)(weak-pairs)                        ...     -0.001616095
E(CORR)(corrected)                         ...     -1.478189406
E(TOT)                                     ...   -313.857478788
E(CCSD(T))                                 ...   -313.916685641
FINAL SINGLE POINT ENERGY      -313.916685641012

DIPOLE MOMENT
-------------
                                X             Y             Z
Electronic contribution:      2.02825       0.00004      -0.00001
Nuclear contribution   :     -1.99624      -0.00003       0.00002
                        -----------------------------------------
Total Dipole Moment    :      0.03201       0.00000       0.00001
                        -----------------------------------------
Magnitude (a.u.)       :      0.03201
Magnitude (Debye)      :      0.08137

Rotational constants in cm-1:     0.086449     0.062698     0.039549
Rotational constants in MHz :  2591.688039  1879.628552  1185.649928

                             ****ORCA TERMINATED NORMALLY****
TOTAL RUN TIME: 0 days 0 hours 23 minutes 32 seconds 805 msec
