                         Program Version 4.1.x  -  STABLE  -
|  1> ! RHF DLPNO-CCSD(T) cc-pVTZ RIJK cc-pVTZ/JK cc-pVTZ/C
|  2> ! KDIIS SOSCF TightSCF TightPNO
|  3>
|  4> %pal nprocs 8 end
|  5>
|  6> %maxcore 8000
|  7>
|  8> %scf maxiter 300
|  9>      shift shift 0.2 erroff 0.1 end
| 10> end
| 11>
| 12> * xyzfile 0 1 trans1_2difluorocycloh_eq_eq.xyz
| 13>
| 14>
| 15>                          ****END OF INPUT****

CARTESIAN COORDINATES (ANGSTROEM)
---------------------------------
  C     -1.876720    0.706520   -0.302110
  C     -1.876710   -0.706560    0.302100
  C     -0.604060   -1.473760   -0.093020
  C      0.656730   -0.702200    0.290550
  C      0.656710    0.702220   -0.290540
  C     -0.604110    1.473740    0.093040
  F      1.780870   -1.401810   -0.192100
  F      1.780840    1.401840    0.192090
  H     -0.570880   -2.461240    0.378950
  H     -0.588380   -1.638140   -1.178540
  H      0.777390   -0.642040    1.379400
  H      0.777340    0.642060   -1.379390
  H     -1.941260   -0.634960    1.396820
  H     -2.759960   -1.265620   -0.026270
  H     -0.570960    2.461230   -0.378930
  H     -0.588420    1.638140    1.178550
  H     -1.941260    0.634930   -1.396830
  H     -2.759980    1.265580    0.026250

 Total Charge           Charge          ....    0
 Multiplicity           Mult            ....    1
 Number of Electrons    NEL             ....   64
 Basis Dimension        Dim             ....  380

ORBITAL ENERGIES
----------------

  NO   OCC          E(Eh)            E(eV)
   0   2.0000     -26.269182      -714.8208
   1   2.0000     -26.269179      -714.8207
   2   2.0000     -11.317445      -307.9633
   3   2.0000     -11.316786      -307.9454
   4   2.0000     -11.241310      -305.8916
   5   2.0000     -11.240819      -305.8782
   6   2.0000     -11.240248      -305.8627
   7   2.0000     -11.240149      -305.8600
   8   2.0000      -1.581988       -43.0481
   9   2.0000      -1.570281       -42.7295
  10   2.0000      -1.135326       -30.8938
  11   2.0000      -1.025150       -27.8957
  12   2.0000      -1.017170       -27.6786
  13   2.0000      -0.864489       -23.5239
  14   2.0000      -0.853669       -23.2295
  15   2.0000      -0.793735       -21.5986
  16   2.0000      -0.705595       -19.2002
  17   2.0000      -0.703277       -19.1371
  18   2.0000      -0.681523       -18.5452
  19   2.0000      -0.669853       -18.2276
  20   2.0000      -0.655902       -17.8480
  21   2.0000      -0.621315       -16.9068
  22   2.0000      -0.611942       -16.6518
  23   2.0000      -0.593053       -16.1378
  24   2.0000      -0.589625       -16.0445
  25   2.0000      -0.555603       -15.1187
  26   2.0000      -0.510707       -13.8970
  27   2.0000      -0.508644       -13.8409
  28   2.0000      -0.502516       -13.6742
  29   2.0000      -0.484064       -13.1721
  30   2.0000      -0.475941       -12.9510
  31   2.0000      -0.456084       -12.4107
  32   0.0000       0.127816         3.4781
  33   0.0000       0.140544         3.8244
  34   0.0000       0.158855         4.3227
  35   0.0000       0.177174         4.8211
  36   0.0000       0.202324         5.5055

MULLIKEN ATOMIC CHARGES
-----------------------
   0 C :   -0.212254
   1 C :   -0.212257
   2 C :   -0.229235
   3 C :    0.225796
   4 C :    0.225795
   5 C :   -0.229237
   6 F :   -0.316322
   7 F :   -0.316315
   8 H :    0.123641
   9 H :    0.101060
  10 H :    0.089955
  11 H :    0.089953
  12 H :    0.097913
  13 H :    0.119446
  14 H :    0.123635
  15 H :    0.101066
  16 H :    0.097916
  17 H :    0.119443
Sum of atomic charges:   -0.0000000

LOEWDIN ATOMIC CHARGES
----------------------
   0 C :    0.062782
   1 C :    0.062787
   2 C :    0.062488
   3 C :   -0.115970
   4 C :   -0.115976
   5 C :    0.062485
   6 F :    0.095832
   7 F :    0.095845
   8 H :   -0.017920
   9 H :   -0.018703
  10 H :   -0.022823
  11 H :   -0.022825
  12 H :   -0.023904
  13 H :   -0.021789
  14 H :   -0.017915
  15 H :   -0.018707
  16 H :   -0.023903
  17 H :   -0.021785

  Mayer bond orders larger than 0.1
B(  0-C ,  1-C ) :   0.9391 B(  0-C ,  5-C ) :   0.9303 B(  0-C , 16-H ) :   0.9826
B(  0-C , 17-H ) :   0.9886 B(  1-C ,  2-C ) :   0.9303 B(  1-C , 12-H ) :   0.9826
B(  1-C , 13-H ) :   0.9886 B(  2-C ,  3-C ) :   0.9581 B(  2-C ,  8-H ) :   0.9858
B(  2-C ,  9-H ) :   0.9774 B(  3-C ,  4-C ) :   0.9814 B(  3-C ,  6-F ) :   0.9405
B(  3-C , 10-H ) :   0.9798 B(  4-C ,  5-C ) :   0.9581 B(  4-C ,  7-F ) :   0.9405
B(  4-C , 11-H ) :   0.9798 B(  5-C , 14-H ) :   0.9858 B(  5-C , 15-H ) :   0.9774

E(0)                                       ...   -432.071962486
E(0)                                       ...   -432.071962486
E(CORR)(strong-pairs)                      ...     -1.569906610
E(CORR)(weak-pairs)                        ...     -0.001663266
E(CORR)(corrected)                         ...     -1.571569876
E(TOT)                                     ...   -433.643532362
E(CCSD(T))                                 ...   -433.701115904
FINAL SINGLE POINT ENERGY      -433.701115903679

DIPOLE MOMENT
-------------
                                X             Y             Z
Electronic contribution:     12.16532       0.00009      -0.00000
Nuclear contribution   :    -13.69011      -0.00009       0.00001
                        -----------------------------------------
Total Dipole Moment    :     -1.52480       0.00000       0.00001
                        -----------------------------------------
Magnitude (a.u.)       :      1.52480
Magnitude (Debye)      :      3.87572

Rotational constants in cm-1:     0.088788     0.063641     0.040002
Rotational constants in MHz :  2661.803765  1907.895794  1199.224620

                             ****ORCA TERMINATED NORMALLY****
TOTAL RUN TIME: 0 days 0 hours 12 minutes 3 seconds 422 msec
