                         Program Version 4.1.x  -  STABLE  -
|  1> ! RHF DLPNO-CCSD(T) cc-pVTZ RIJK cc-pVTZ/JK cc-pVTZ/C
|  2> ! KDIIS SOSCF TightSCF TightPNO
|  3>
|  4> %pal nprocs 8 end
|  5>
|  6> %maxcore 8000
|  7>
|  8> %scf maxiter 300
|  9>      shift shift 0.2 erroff 0.1 end
| 10> end
| 11>
| 12> * xyzfile 0 1 trimethylsilylcyclohexane_eq.xyz
| 13>
| 14>
| 15>                          ****END OF INPUT****

CARTESIAN COORDINATES (ANGSTROEM)
---------------------------------
  C      0.267880   -0.000010   -0.381010
  C      0.996490   -1.268050    0.124420
  C      2.491430   -1.268260   -0.242150
  C      3.198880    0.000000    0.258330
  C      2.491450    1.268260   -0.242160
  C      0.996500    1.268070    0.124410
  Si    -1.608370    0.000000   -0.009540
  C     -2.403680   -1.541420   -0.778620
  C     -1.933510   -0.000010    1.859430
  C     -2.403730    1.541430   -0.778600
  H      2.979260   -2.162380    0.167280
  H      2.591590   -1.329950   -1.335820
  H      4.249750    0.000000   -0.057580
  H      3.204220    0.000000    1.358530
  H      2.591590    1.329930   -1.335830
  H      2.979270    2.162380    0.167280
  H      0.902370   -1.330550    1.219140
  H      0.521050   -2.170960   -0.278450
  H      0.521060    2.170980   -0.278480
  H      0.902380    1.330600    1.219130
  H      0.339900   -0.000010   -1.483420
  H     -3.010890   -0.000010    2.063470
  H     -1.506060   -0.885060    2.344460
  H     -1.506050    0.885010    2.344490
  H     -3.490350    1.532430   -0.631870
  H     -2.019260    2.465680   -0.332540
  H     -2.216750    1.590130   -1.858080
  H     -3.490330   -1.532440   -0.632030
  H     -2.216570   -1.590210   -1.858070
  H     -2.019260   -2.465640   -0.332460

 Total Charge           Charge          ....    0
 Multiplicity           Mult            ....    1
 Number of Electrons    NEL             ....   88
 Basis Dimension        Dim             ....  584

ORBITAL ENERGIES
----------------

  NO   OCC          E(Eh)            E(eV)
   0   2.0000     -68.747516     -1870.7150
   1   2.0000     -11.216810      -305.2249
   2   2.0000     -11.216807      -305.2248
   3   2.0000     -11.213885      -305.1453
   4   2.0000     -11.213460      -305.1338
   5   2.0000     -11.213045      -305.1225
   6   2.0000     -11.202942      -304.8476
   7   2.0000     -11.194565      -304.6196
   8   2.0000     -11.194468      -304.6170
   9   2.0000     -11.194460      -304.6168
  10   2.0000      -6.094607      -165.8427
  11   2.0000      -4.200866      -114.3114
  12   2.0000      -4.200837      -114.3106
  13   2.0000      -4.200645      -114.3054
  14   2.0000      -1.103904       -30.0387
  15   2.0000      -0.996144       -27.1065
  16   2.0000      -0.995579       -27.0911
  17   2.0000      -0.952087       -25.9076
  18   2.0000      -0.916433       -24.9374
  19   2.0000      -0.916079       -24.9278
  20   2.0000      -0.824462       -22.4347
  21   2.0000      -0.818146       -22.2629
  22   2.0000      -0.746180       -20.3046
  23   2.0000      -0.648589       -17.6490
  24   2.0000      -0.616785       -16.7836
  25   2.0000      -0.595967       -16.2171
  26   2.0000      -0.592270       -16.1165
  27   2.0000      -0.574800       -15.6411
  28   2.0000      -0.557567       -15.1722
  29   2.0000      -0.555336       -15.1114
  30   2.0000      -0.553669       -15.0661
  31   2.0000      -0.537103       -14.6153
  32   2.0000      -0.531586       -14.4652
  33   2.0000      -0.526119       -14.3164
  34   2.0000      -0.517063       -14.0700
  35   2.0000      -0.507913       -13.8210
  36   2.0000      -0.482971       -13.1423
  37   2.0000      -0.476917       -12.9776
  38   2.0000      -0.471590       -12.8326
  39   2.0000      -0.446105       -12.1391
  40   2.0000      -0.430786       -11.7223
  41   2.0000      -0.419287       -11.4094
  42   2.0000      -0.413496       -11.2518
  43   2.0000      -0.376241       -10.2380
  44   0.0000       0.126511         3.4425
  45   0.0000       0.149689         4.0732
  46   0.0000       0.151131         4.1125
  47   0.0000       0.160100         4.3566
  48   0.0000       0.181870         4.9489

MULLIKEN ATOMIC CHARGES
-----------------------
   0 C :   -0.168746
   1 C :   -0.223390
   2 C :   -0.192608
   3 C :   -0.185581
   4 C :   -0.192604
   5 C :   -0.223397
   6 Si:    0.438706
   7 C :   -0.433305
   8 C :   -0.428563
   9 C :   -0.433306
  10 H :    0.105005
  11 H :    0.086690
  12 H :    0.106897
  13 H :    0.084420
  14 H :    0.086692
  15 H :    0.105005
  16 H :    0.094783
  17 H :    0.117396
  18 H :    0.117394
  19 H :    0.094784
  20 H :    0.094314
  21 H :    0.107448
  22 H :    0.105604
  23 H :    0.105609
  24 H :    0.106107
  25 H :    0.105490
  26 H :    0.103778
  27 H :    0.106106
  28 H :    0.103782
  29 H :    0.105490
Sum of atomic charges:   -0.0000000

LOEWDIN ATOMIC CHARGES
----------------------
   0 C :   -0.074979
   1 C :    0.047315
   2 C :    0.057270
   3 C :    0.055612
   4 C :    0.057268
   5 C :    0.047328
   6 Si:    0.372878
   7 C :    0.016059
   8 C :    0.015960
   9 C :    0.016061
  10 H :   -0.028330
  11 H :   -0.027787
  12 H :   -0.028002
  13 H :   -0.027808
  14 H :   -0.027788
  15 H :   -0.028330
  16 H :   -0.026213
  17 H :   -0.025824
  18 H :   -0.025825
  19 H :   -0.026217
  20 H :   -0.030037
  21 H :   -0.032916
  22 H :   -0.035111
  23 H :   -0.035114
  24 H :   -0.033354
  25 H :   -0.036063
  26 H :   -0.033322
  27 H :   -0.033347
  28 H :   -0.033322
  29 H :   -0.036061

  Mayer bond orders larger than 0.1
B(  0-C ,  1-C ) :   0.9345 B(  0-C ,  5-C ) :   0.9345 B(  0-C ,  6-Si) :   1.0182
B(  0-C , 20-H ) :   0.9595 B(  1-C ,  2-C ) :   0.9590 B(  1-C , 16-H ) :   0.9803
B(  1-C , 17-H ) :   0.9937 B(  2-C ,  3-C ) :   0.9501 B(  2-C , 10-H ) :   0.9953
B(  2-C , 11-H ) :   0.9858 B(  3-C ,  4-C ) :   0.9501 B(  3-C , 12-H ) :   0.9953
B(  3-C , 13-H ) :   0.9844 B(  4-C ,  5-C ) :   0.9590 B(  4-C , 14-H ) :   0.9858
B(  4-C , 15-H ) :   0.9953 B(  5-C , 18-H ) :   0.9937 B(  5-C , 19-H ) :   0.9803
B(  6-Si,  7-C ) :   1.0223 B(  6-Si,  8-C ) :   1.0076 B(  6-Si,  9-C ) :   1.0223
B(  7-C , 27-H ) :   0.9650 B(  7-C , 28-H ) :   0.9617 B(  7-C , 29-H ) :   0.9634
B(  8-C , 21-H ) :   0.9649 B(  8-C , 22-H ) :   0.9639 B(  8-C , 23-H ) :   0.9639
B(  9-C , 24-H ) :   0.9650 B(  9-C , 25-H ) :   0.9634 B(  9-C , 26-H ) :   0.9617

E(0)                                       ...   -641.569821054
E(0)                                       ...   -641.569821054
E(CORR)(strong-pairs)                      ...     -1.805754365
E(CORR)(weak-pairs)                        ...     -0.002290326
E(CORR)(corrected)                         ...     -1.808044691
E(TOT)                                     ...   -643.377865745
E(CCSD(T))                                 ...   -643.450342080
FINAL SINGLE POINT ENERGY      -643.450342079710

DIPOLE MOMENT
-------------
                                X             Y             Z
Electronic contribution:     -0.39094       0.00005      -0.51836
Nuclear contribution   :      0.42766      -0.00007       0.49657
                        -----------------------------------------
Total Dipole Moment    :      0.03671      -0.00002      -0.02179
                        -----------------------------------------
Magnitude (a.u.)       :      0.04269
Magnitude (Debye)      :      0.10852

Rotational constants in cm-1:     0.060478     0.021995     0.019697
Rotational constants in MHz :  1813.090244   659.384907   590.502624

                             ****ORCA TERMINATED NORMALLY****
TOTAL RUN TIME: 0 days 0 hours 36 minutes 11 seconds 782 msec
