                         Program Version 4.2.1 -  RELEASE  -
|  1> ! RHF DLPNO-CCSD(T) cc-pVTZ RIJK cc-pVTZ/JK cc-pVTZ/C
|  2> ! KDIIS SOSCF TightSCF TightPNO
|  3>
|  4> %pal nprocs 10 end
|  5>
|  6> %maxcore 8000
|  7>
|  8> %scf maxiter 300
|  9>      shift shift 0.2 erroff 0.1 end
| 10> end
| 11>
| 12> * xyzfile 0 1 trimethylphosphate_C1.xyz
| 13>
| 14>
| 15>                          ****END OF INPUT****

CARTESIAN COORDINATES (ANGSTROEM)
---------------------------------
  C      1.351470    2.047130   -0.475150
  O      0.991730    1.160210    0.604400
  P     -0.055690   -0.035570    0.409170
  O      0.493870   -0.931700   -0.825790
  C      1.354170   -2.059540   -0.554550
  O     -0.320470   -0.794550    1.651020
  O     -1.287610    0.723700   -0.290910
  C     -2.506120    0.003600   -0.571770
  H      2.131880    2.697940   -0.079690
  H      1.734980    1.479340   -1.327820
  H      0.485700    2.640320   -0.779480
  H     -3.214250    0.743610   -0.945710
  H     -2.326360   -0.758820   -1.335290
  H     -2.893420   -0.457840    0.340320
  H      1.412060   -2.626280   -1.484750
  H      2.353620   -1.716690   -0.268920
  H      0.933800   -2.676560    0.242850

 Total Charge           Charge          ....    0
 Multiplicity           Mult            ....    1
 Number of Electrons    NEL             ....   74
 Basis Dimension        Dim             ....  370

ORBITAL ENERGIES
----------------

  NO   OCC          E(Eh)            E(eV)
   0   2.0000     -80.097150     -2179.5543
   1   2.0000     -20.590569      -560.2979
   2   2.0000     -20.589439      -560.2671
   3   2.0000     -20.589118      -560.2584
   4   2.0000     -20.501677      -557.8790
   5   2.0000     -11.295607      -307.3691
   6   2.0000     -11.295477      -307.3656
   7   2.0000     -11.293363      -307.3080
   8   2.0000      -7.613831      -207.1829
   9   2.0000      -5.512223      -149.9952
  10   2.0000      -5.511982      -149.9887
  11   2.0000      -5.510827      -149.9572
  12   2.0000      -1.441777       -39.2328
  13   2.0000      -1.375331       -37.4247
  14   2.0000      -1.374458       -37.4009
  15   2.0000      -1.284093       -34.9420
  16   2.0000      -0.980019       -26.6677
  17   2.0000      -0.951869       -25.9017
  18   2.0000      -0.945872       -25.7385
  19   2.0000      -0.781756       -21.2727
  20   2.0000      -0.710661       -19.3381
  21   2.0000      -0.708658       -19.2836
  22   2.0000      -0.669715       -18.2239
  23   2.0000      -0.658795       -17.9267
  24   2.0000      -0.648385       -17.6435
  25   2.0000      -0.629755       -17.1365
  26   2.0000      -0.617966       -16.8157
  27   2.0000      -0.614826       -16.7303
  28   2.0000      -0.578938       -15.7537
  29   2.0000      -0.536500       -14.5989
  30   2.0000      -0.522845       -14.2273
  31   2.0000      -0.512959       -13.9583
  32   2.0000      -0.495034       -13.4706
  33   2.0000      -0.490846       -13.3566
  34   2.0000      -0.477628       -12.9969
  35   2.0000      -0.458498       -12.4764
  36   2.0000      -0.453351       -12.3363
  37   0.0000       0.133303         3.6274
  38   0.0000       0.154530         4.2050
  39   0.0000       0.157574         4.2878
  40   0.0000       0.198924         5.4130
  41   0.0000       0.202333         5.5058

MULLIKEN ATOMIC CHARGES
-----------------------
   0 C :   -0.064173
   1 O :   -0.405077
   2 P :    1.143904
   3 O :   -0.447338
   4 C :   -0.061028
   5 O :   -0.602588
   6 O :   -0.423687
   7 C :   -0.055204
   8 H :    0.115366
   9 H :    0.087149
  10 H :    0.101137
  11 H :    0.111635
  12 H :    0.089786
  13 H :    0.105035
  14 H :    0.105175
  15 H :    0.085202
  16 H :    0.114709
Sum of atomic charges:   -0.0000000

LOEWDIN ATOMIC CHARGES
----------------------
   0 C :    0.040409
   1 O :    0.135677
   2 P :    0.032660
   3 O :    0.109099
   4 C :    0.038164
   5 O :   -0.233833
   6 O :    0.126622
   7 C :    0.041829
   8 H :   -0.027565
   9 H :   -0.037614
  10 H :   -0.034936
  11 H :   -0.028313
  12 H :   -0.035862
  13 H :   -0.029843
  14 H :   -0.030733
  15 H :   -0.035348
  16 H :   -0.030414

  Mayer bond orders larger than 0.100000
B(  0-C ,  1-O ) :   0.9064 B(  0-C ,  8-H ) :   0.9789 B(  0-C ,  9-H ) :   0.9715
B(  0-C , 10-H ) :   0.9729 B(  1-O ,  2-P ) :   1.1701 B(  2-P ,  3-O ) :   1.0909
B(  2-P ,  5-O ) :   2.0032 B(  2-P ,  6-O ) :   1.1498 B(  3-O ,  4-C ) :   0.9036
B(  4-C , 14-H ) :   0.9783 B(  4-C , 15-H ) :   0.9766 B(  4-C , 16-H ) :   0.9693
B(  6-O ,  7-C ) :   0.8984 B(  7-C , 11-H ) :   0.9789 B(  7-C , 12-H ) :   0.9742
B(  7-C , 13-H ) :   0.9705

E(0)                                       ...   -759.309124696
E(0)                                       ...   -759.309124696
E(CORR)(strong-pairs)                      ...     -1.655303517
E(CORR)(weak-pairs)                        ...     -0.001490480
E(CORR)(corrected)                         ...     -1.656793997
E(TOT)                                     ...   -760.965918693
E(CCSD(T))                                 ...   -761.028228641
FINAL SINGLE POINT ENERGY      -761.028228641435

DIPOLE MOMENT
-------------
                                X             Y             Z
Electronic contribution:     -0.48588       0.78876       4.38258
Nuclear contribution   :      0.66388      -0.63360      -5.96313
                        -----------------------------------------
Total Dipole Moment    :      0.17800       0.15515      -1.58054
                        -----------------------------------------
Magnitude (a.u.)       :      1.59808
Magnitude (Debye)      :      4.06201

Rotational constants in cm-1:     0.061337     0.057637     0.042332
Rotational constants in MHz :  1838.850706  1727.904730  1269.094030

                             ****ORCA TERMINATED NORMALLY****
TOTAL RUN TIME: 0 days 0 hours 8 minutes 39 seconds 940 msec
