                         Program Version 4.1.x  -  STABLE  -
|  1> ! RHF DLPNO-CCSD(T) cc-pVTZ RIJK cc-pVTZ/JK cc-pVTZ/C
|  2> ! KDIIS SOSCF TightSCF TightPNO
|  3>
|  4> %pal nprocs 8 end
|  5>
|  6> %maxcore 8000
|  7>
|  8> %scf maxiter 300
|  9>      shift shift 0.2 erroff 0.1 end
| 10> end
| 11>
| 12> * xyzfile 0 1 trimethylsilylcyclohexane_ax.xyz
| 13>
| 14>
| 15>                          ****END OF INPUT****

CARTESIAN COORDINATES (ANGSTROEM)
---------------------------------
  C      0.200510    0.000030   -0.972520
  C      1.084930    1.269100   -0.869430
  C      2.007990    1.269690    0.361090
  C      2.871550   -0.000010    0.417700
  C      2.008010   -1.269730    0.360990
  C      1.084910   -1.269020   -0.869520
  Si    -1.404810    0.000010    0.083890
  C     -2.411960   -1.539550   -0.385240
  C     -1.174940   -0.000440    1.969160
  C     -2.411660    1.539950   -0.384650
  H      2.648390    2.160730    0.341280
  H      1.409120    1.339710    1.278700
  H      3.490480   -0.000050    1.323770
  H      3.566320    0.000030   -0.435350
  H      1.409170   -1.339830    1.278600
  H      2.648420   -2.160770    0.341080
  H      1.718050    1.326520   -1.768810
  H      0.468080    2.176290   -0.877580
  H      0.468030   -2.176200   -0.877690
  H      1.718000   -1.326430   -1.768920
  H     -0.234500    0.000090   -1.986440
  H     -2.156800   -0.000390    2.458780
  H     -0.633090   -0.885530    2.319560
  H     -0.632750    0.884230    2.320050
  H     -3.393040    1.521560    0.104220
  H     -1.911930    2.466610   -0.080260
  H     -2.582290    1.594740   -1.466390
  H     -3.393310   -1.521250    0.103700
  H     -2.582670   -1.593810   -1.467000
  H     -1.912360   -2.466440   -0.081330

 Total Charge           Charge          ....    0
 Multiplicity           Mult            ....    1
 Number of Electrons    NEL             ....   88
 Basis Dimension        Dim             ....  584

ORBITAL ENERGIES
----------------

  NO   OCC          E(Eh)            E(eV)
   0   2.0000     -68.749359     -1870.7652
   1   2.0000     -11.217006      -305.2303
   2   2.0000     -11.217002      -305.2302
   3   2.0000     -11.214463      -305.1611
   4   2.0000     -11.214017      -305.1489
   5   2.0000     -11.213623      -305.1382
   6   2.0000     -11.205384      -304.9140
   7   2.0000     -11.195799      -304.6532
   8   2.0000     -11.194018      -304.6047
   9   2.0000     -11.194011      -304.6045
  10   2.0000      -6.096123      -165.8839
  11   2.0000      -4.202400      -114.3531
  12   2.0000      -4.202391      -114.3529
  13   2.0000      -4.202129      -114.3457
  14   2.0000      -1.103276       -30.0217
  15   2.0000      -0.996219       -27.1085
  16   2.0000      -0.995878       -27.0992
  17   2.0000      -0.954194       -25.9650
  18   2.0000      -0.916806       -24.9476
  19   2.0000      -0.915660       -24.9164
  20   2.0000      -0.824395       -22.4329
  21   2.0000      -0.821981       -22.3672
  22   2.0000      -0.740147       -20.1404
  23   2.0000      -0.644858       -17.5475
  24   2.0000      -0.619010       -16.8441
  25   2.0000      -0.608123       -16.5479
  26   2.0000      -0.596353       -16.2276
  27   2.0000      -0.570886       -15.5346
  28   2.0000      -0.554734       -15.0951
  29   2.0000      -0.551937       -15.0190
  30   2.0000      -0.542816       -14.7708
  31   2.0000      -0.536934       -14.6107
  32   2.0000      -0.536279       -14.5929
  33   2.0000      -0.526829       -14.3358
  34   2.0000      -0.517331       -14.0773
  35   2.0000      -0.513985       -13.9862
  36   2.0000      -0.509324       -13.8594
  37   2.0000      -0.477289       -12.9877
  38   2.0000      -0.460061       -12.5189
  39   2.0000      -0.430476       -11.7138
  40   2.0000      -0.429805       -11.6956
  41   2.0000      -0.415062       -11.2944
  42   2.0000      -0.413338       -11.2475
  43   2.0000      -0.383562       -10.4372
  44   0.0000       0.124675         3.3926
  45   0.0000       0.147708         4.0193
  46   0.0000       0.158083         4.3017
  47   0.0000       0.159285         4.3344
  48   0.0000       0.180903         4.9226

MULLIKEN ATOMIC CHARGES
-----------------------
   0 C :   -0.207732
   1 C :   -0.220583
   2 C :   -0.204316
   3 C :   -0.185705
   4 C :   -0.204329
   5 C :   -0.220566
   6 Si:    0.430445
   7 C :   -0.430727
   8 C :   -0.441855
   9 C :   -0.430737
  10 H :    0.112714
  11 H :    0.092590
  12 H :    0.107588
  13 H :    0.085245
  14 H :    0.092601
  15 H :    0.112712
  16 H :    0.100784
  17 H :    0.117082
  18 H :    0.117067
  19 H :    0.100790
  20 H :    0.110318
  21 H :    0.114409
  22 H :    0.110166
  23 H :    0.110186
  24 H :    0.106582
  25 H :    0.104613
  26 H :    0.104736
  27 H :    0.106578
  28 H :    0.104730
  29 H :    0.104614
Sum of atomic charges:   -0.0000000

LOEWDIN ATOMIC CHARGES
----------------------
   0 C :   -0.072900
   1 C :    0.049732
   2 C :    0.057258
   3 C :    0.056962
   4 C :    0.057268
   5 C :    0.049723
   6 Si:    0.371852
   7 C :    0.016565
   8 C :    0.011149
   9 C :    0.016566
  10 H :   -0.027103
  11 H :   -0.029317
  12 H :   -0.027872
  13 H :   -0.027336
  14 H :   -0.029321
  15 H :   -0.027100
  16 H :   -0.026594
  17 H :   -0.027138
  18 H :   -0.027133
  19 H :   -0.026594
  20 H :   -0.024913
  21 H :   -0.031525
  22 H :   -0.037643
  23 H :   -0.037655
  24 H :   -0.033320
  25 H :   -0.036677
  26 H :   -0.033470
  27 H :   -0.033319
  28 H :   -0.033468
  29 H :   -0.036677

  Mayer bond orders larger than 0.1
B(  0-C ,  1-C ) :   0.9428 B(  0-C ,  5-C ) :   0.9428 B(  0-C ,  6-Si) :   0.9938
B(  0-C , 20-H ) :   0.9688 B(  1-C ,  2-C ) :   0.9455 B(  1-C , 16-H ) :   0.9864
B(  1-C , 17-H ) :   0.9925 B(  2-C ,  3-C ) :   0.9488 B(  2-C , 10-H ) :   0.9940
B(  2-C , 11-H ) :   0.9815 B(  3-C ,  4-C ) :   0.9488 B(  3-C , 12-H ) :   0.9953
B(  3-C , 13-H ) :   0.9859 B(  4-C ,  5-C ) :   0.9455 B(  4-C , 14-H ) :   0.9815
B(  4-C , 15-H ) :   0.9940 B(  5-C , 18-H ) :   0.9925 B(  5-C , 19-H ) :   0.9863
B(  6-Si,  7-C ) :   1.0257 B(  6-Si,  8-C ) :   1.0086 B(  6-Si,  9-C ) :   1.0257
B(  7-C , 27-H ) :   0.9649 B(  7-C , 28-H ) :   0.9623 B(  7-C , 29-H ) :   0.9626
B(  8-C , 21-H ) :   0.9637 B(  8-C , 22-H ) :   0.9636 B(  8-C , 23-H ) :   0.9636
B(  9-C , 24-H ) :   0.9649 B(  9-C , 25-H ) :   0.9626 B(  9-C , 26-H ) :   0.9623

E(0)                                       ...   -641.564099111
E(0)                                       ...   -641.564099111
E(CORR)(strong-pairs)                      ...     -1.807515598
E(CORR)(weak-pairs)                        ...     -0.002086541
E(CORR)(corrected)                         ...     -1.809602140
E(TOT)                                     ...   -643.373701251
E(CCSD(T))                                 ...   -643.446457280
FINAL SINGLE POINT ENERGY      -643.446457280104

DIPOLE MOMENT
-------------
                                X             Y             Z
Electronic contribution:     -0.15646       0.00024      -1.13849
Nuclear contribution   :      0.20782      -0.00022       1.11512
                        -----------------------------------------
Total Dipole Moment    :      0.05136       0.00002      -0.02337
                        -----------------------------------------
Magnitude (a.u.)       :      0.05643
Magnitude (Debye)      :      0.14343

Rotational constants in cm-1:     0.054762     0.025568     0.023422
Rotational constants in MHz :  1641.710568   766.509870   702.166761

                             ****ORCA TERMINATED NORMALLY****
TOTAL RUN TIME: 0 days 0 hours 40 minutes 38 seconds 428 msec
