                         Program Version 4.2.1 -  RELEASE  -
|  1> ! RHF DLPNO-CCSD(T) cc-pVTZ RIJK cc-pVTZ/JK cc-pVTZ/C
|  2> ! KDIIS SOSCF TightSCF TightPNO
|  3>
|  4> %pal nprocs 10 end
|  5>
|  6> %maxcore 8000
|  7>
|  8> %scf maxiter 300
|  9>      shift shift 0.2 erroff 0.1 end
| 10> end
| 11>
| 12> * xyzfile 0 1 trimethylphosphate_C3.xyz
| 13>
| 14>
| 15>                          ****END OF INPUT****

CARTESIAN COORDINATES (ANGSTROEM)
---------------------------------
  C      2.516340   -0.770580   -0.054230
  O      1.177410   -0.836300   -0.588580
  P      0.000700   -0.000740    0.115810
  O     -1.311320   -0.600030   -0.590440
  C     -1.928920   -1.789320   -0.054650
  O     -0.000950   -0.001400    1.601380
  O      0.137200    1.436190   -0.588470
  C     -0.590080    2.562290   -0.054080
  H      3.090720   -1.527660   -0.589010
  H      2.947940    0.217750   -0.238970
  H      2.511730   -0.984270    1.017540
  H     -0.226530    3.437760   -0.593020
  H     -1.662380    2.438510   -0.233280
  H     -0.397970    2.668670    1.016490
  H     -2.869390   -1.908050   -0.593630
  H     -1.290410   -2.659940   -0.232340
  H     -2.116860   -1.673570    1.015680

 Total Charge           Charge          ....    0
 Multiplicity           Mult            ....    1
 Number of Electrons    NEL             ....   74
 Basis Dimension        Dim             ....  370

ORBITAL ENERGIES
----------------

  NO   OCC          E(Eh)            E(eV)
   0   2.0000     -80.096398     -2179.5338
   1   2.0000     -20.587516      -560.2148
   2   2.0000     -20.587487      -560.2140
   3   2.0000     -20.587432      -560.2125
   4   2.0000     -20.503972      -557.9414
   5   2.0000     -11.292138      -307.2747
   6   2.0000     -11.292118      -307.2742
   7   2.0000     -11.292078      -307.2731
   8   2.0000      -7.613217      -207.1662
   9   2.0000      -5.511440      -149.9739
  10   2.0000      -5.511438      -149.9739
  11   2.0000      -5.510320      -149.9434
  12   2.0000      -1.440252       -39.1912
  13   2.0000      -1.374174       -37.3932
  14   2.0000      -1.374072       -37.3904
  15   2.0000      -1.284138       -34.9432
  16   2.0000      -0.983812       -26.7709
  17   2.0000      -0.942987       -25.6600
  18   2.0000      -0.942966       -25.6594
  19   2.0000      -0.778619       -21.1873
  20   2.0000      -0.708034       -19.2666
  21   2.0000      -0.707951       -19.2643
  22   2.0000      -0.666763       -18.1435
  23   2.0000      -0.651281       -17.7222
  24   2.0000      -0.651222       -17.7206
  25   2.0000      -0.618903       -16.8412
  26   2.0000      -0.617622       -16.8063
  27   2.0000      -0.617548       -16.8043
  28   2.0000      -0.589046       -16.0288
  29   2.0000      -0.525280       -14.2936
  30   2.0000      -0.525273       -14.2934
  31   2.0000      -0.507319       -13.8049
  32   2.0000      -0.492169       -13.3926
  33   2.0000      -0.492130       -13.3915
  34   2.0000      -0.481691       -13.1075
  35   2.0000      -0.454633       -12.3712
  36   2.0000      -0.454585       -12.3699
  37   0.0000       0.139027         3.7831
  38   0.0000       0.158115         4.3025
  39   0.0000       0.158245         4.3061
  40   0.0000       0.204657         5.5690
  41   0.0000       0.208969         5.6863

MULLIKEN ATOMIC CHARGES
-----------------------
   0 C :   -0.057891
   1 O :   -0.412571
   2 P :    1.129887
   3 O :   -0.412818
   4 C :   -0.057732
   5 O :   -0.628704
   6 O :   -0.412732
   7 C :   -0.057765
   8 H :    0.111793
   9 H :    0.088360
  10 H :    0.103416
  11 H :    0.111787
  12 H :    0.088136
  13 H :    0.103426
  14 H :    0.111712
  15 H :    0.088208
  16 H :    0.103489
Sum of atomic charges:   -0.0000000

LOEWDIN ATOMIC CHARGES
----------------------
   0 C :    0.041114
   1 O :    0.128030
   2 P :    0.028749
   3 O :    0.127896
   4 C :    0.041141
   5 O :   -0.249612
   6 O :    0.127876
   7 C :    0.041006
   8 H :   -0.028812
   9 H :   -0.034648
  10 H :   -0.031917
  11 H :   -0.028828
  12 H :   -0.034672
  13 H :   -0.031930
  14 H :   -0.028835
  15 H :   -0.034630
  16 H :   -0.031927

  Mayer bond orders larger than 0.100000
B(  0-C ,  1-O ) :   0.9001 B(  0-C ,  8-H ) :   0.9790 B(  0-C ,  9-H ) :   0.9759
B(  0-C , 10-H ) :   0.9702 B(  1-O ,  2-P ) :   1.1645 B(  2-P ,  3-O ) :   1.1639
B(  2-P ,  5-O ) :   1.9457 B(  2-P ,  6-O ) :   1.1641 B(  3-O ,  4-C ) :   0.9002
B(  4-C , 14-H ) :   0.9790 B(  4-C , 15-H ) :   0.9759 B(  4-C , 16-H ) :   0.9703
B(  6-O ,  7-C ) :   0.9003 B(  7-C , 11-H ) :   0.9790 B(  7-C , 12-H ) :   0.9759
B(  7-C , 13-H ) :   0.9703

E(0)                                       ...   -759.311135836
E(0)                                       ...   -759.311135836
E(CORR)(strong-pairs)                      ...     -1.654389973
E(CORR)(weak-pairs)                        ...     -0.001610594
E(CORR)(corrected)                         ...     -1.656000567
E(TOT)                                     ...   -760.967136403
E(CCSD(T))                                 ...   -761.029311847
FINAL SINGLE POINT ENERGY      -761.029311847152

DIPOLE MOMENT
-------------
                                X             Y             Z
Electronic contribution:      0.01278      -0.00903      -0.83270
Nuclear contribution   :     -0.01368       0.00979       0.45297
                        -----------------------------------------
Total Dipole Moment    :     -0.00090       0.00076      -0.37973
                        -----------------------------------------
Magnitude (a.u.)       :      0.37973
Magnitude (Debye)      :      0.96519

Rotational constants in cm-1:     0.060413     0.060267     0.038875
Rotational constants in MHz :  1811.131413  1806.753991  1165.442779

                             ****ORCA TERMINATED NORMALLY****
TOTAL RUN TIME: 0 days 0 hours 6 minutes 28 seconds 630 msec
