                         Program Version 4.1.x  -  STABLE  -
|  1> ! RHF DLPNO-CCSD(T) cc-pVTZ RIJK cc-pVTZ/JK cc-pVTZ/C
|  2> ! KDIIS SOSCF TightSCF TightPNO
|  3>
|  4> %pal nprocs 16 end
|  5>
|  6> %maxcore 7000
|  7>
|  8> %scf maxiter 300
|  9>      shift shift 0.2 erroff 0.1 end
| 10> end
| 11>
| 12> * xyzfile 0 1 trineopentylbenzene-tribr-twsyn.xyz
| 13>
| 14>
| 15>                          ****END OF INPUT****

CARTESIAN COORDINATES (ANGSTROEM)
---------------------------------
  C     -0.753610   -1.188720   -0.118290
  C      0.576360   -1.244380    0.341800
  C      1.151620    0.000080    0.661350
  C     -1.493860   -0.000110   -0.267560
  C     -0.753780    1.188610   -0.118300
  C      0.576190    1.244460    0.341760
  C      1.314660    2.557990    0.522040
  C      2.232460    3.063530   -0.653180
  C      2.618980    4.515780   -0.302910
  C      3.522740    2.230200   -0.778240
  C      1.515660    3.054450   -2.017740
  C      1.314990   -2.557830    0.522090
  C      2.232860   -3.063310   -0.653100
  C      1.516110   -3.054260   -2.017690
  C      3.523100   -2.229910   -0.778150
  C      2.619470   -4.515530   -0.302820
  C     -2.983670   -0.000210   -0.555790
  C     -3.961970   -0.000220    0.679090
  C     -3.794750   -1.248540    1.568150
  C     -3.794690    1.248050    1.568210
  C     -5.390020   -0.000180    0.094120
  Br    -1.628190    2.847930   -0.548100
  Br    -1.627780   -2.848150   -0.548140
  Br     2.770350    0.000230    1.708280
  H      0.576380    3.336810    0.720310
  H      1.938140    2.486910    1.416830
  H      3.281660    4.934970   -1.068640
  H      1.731480    5.156080   -0.240030
  H      3.143520    4.568650    0.658590
  H      4.146130    2.635050   -1.584140
  H      4.110250    2.251430    0.144260
  H      3.312860    1.183890   -1.017690
  H      2.211510    3.376150   -2.801220
  H      1.158870    2.053670   -2.283930
  H      0.658910    3.731600   -2.034040
  H      1.938430   -2.486670    1.416900
  H      0.576790   -3.336720    0.720370
  H      2.212010   -3.375900   -2.801150
  H      0.659400   -3.731450   -2.034040
  H      1.159280   -2.053490   -2.283880
  H      4.146510   -2.634720   -1.584040
  H      3.313170   -1.183600   -1.017600
  H      4.110610   -2.251110    0.144350
  H      3.282190   -4.934670   -1.068540
  H      3.144000   -4.568350    0.658680
  H      1.732010   -5.155890   -0.239960
  H     -3.224830    0.874320   -1.163390
  H     -3.224710   -0.874820   -1.163330
  H     -4.497340   -1.195950    2.407960
  H     -3.998890   -2.170830    1.018850
  H     -2.785830   -1.321670    1.987390
  H     -4.497400    1.195530    2.407920
  H     -2.785820    1.321010    1.987580
  H     -3.998620    2.170400    1.018920
  H     -6.135550   -0.000170    0.897430
  H     -5.565690    0.886910   -0.525650
  H     -5.565710   -0.887280   -0.525630

 Total Charge           Charge          ....    0
 Multiplicity           Mult            ....    1
 Number of Electrons    NEL             ....  264
 Basis Dimension        Dim             .... 1221

ORBITAL ENERGIES
----------------

  NO   OCC          E(Eh)            E(eV)
   0   2.0000    -490.023952    -13334.2296
   1   2.0000    -490.023952    -13334.2296
   2   2.0000    -490.023122    -13334.2071
   3   2.0000     -65.164366     -1773.2126
   4   2.0000     -65.164366     -1773.2125
   5   2.0000     -65.163489     -1773.1887
   6   2.0000     -58.519615     -1592.3997
   7   2.0000     -58.519614     -1592.3997
   8   2.0000     -58.518753     -1592.3762
   9   2.0000     -58.518239     -1592.3622
  10   2.0000     -58.518238     -1592.3622
  11   2.0000     -58.518144     -1592.3597
  12   2.0000     -58.518144     -1592.3596
  13   2.0000     -58.517344     -1592.3379
  14   2.0000     -58.517280     -1592.3361
  15   2.0000     -11.311707      -307.8072
  16   2.0000     -11.311496      -307.8014
  17   2.0000     -11.311482      -307.8011
  18   2.0000     -11.280233      -306.9507
  19   2.0000     -11.280207      -306.9500
  20   2.0000     -11.280119      -306.9476
  21   2.0000     -11.245320      -306.0007
  22   2.0000     -11.245319      -306.0007
  23   2.0000     -11.245234      -305.9984
  24   2.0000     -11.234206      -305.6983
  25   2.0000     -11.234204      -305.6982
  26   2.0000     -11.234155      -305.6969
  27   2.0000     -11.214025      -305.1491
  28   2.0000     -11.214025      -305.1491
  29   2.0000     -11.213886      -305.1454
  30   2.0000     -11.209491      -305.0258
  31   2.0000     -11.209490      -305.0257
  32   2.0000     -11.208415      -304.9965
  33   2.0000     -11.208415      -304.9965
  34   2.0000     -11.208252      -304.9920
  35   2.0000     -11.208236      -304.9916
  36   2.0000      -9.838079      -267.7077
  37   2.0000      -9.838078      -267.7077
  38   2.0000      -9.837149      -267.6824
  39   2.0000      -7.449685      -202.7162
  40   2.0000      -7.449684      -202.7162
  41   2.0000      -7.448784      -202.6917
  42   2.0000      -7.443004      -202.5344
  43   2.0000      -7.443003      -202.5344
  44   2.0000      -7.442727      -202.5269
  45   2.0000      -7.442727      -202.5269
  46   2.0000      -7.441982      -202.5066
  47   2.0000      -7.441836      -202.5026
  48   2.0000      -3.193442       -86.8980
  49   2.0000      -3.193441       -86.8979
  50   2.0000      -3.192542       -86.8735
  51   2.0000      -3.190076       -86.8064
  52   2.0000      -3.190075       -86.8064
  53   2.0000      -3.189508       -86.7909
  54   2.0000      -3.189506       -86.7909
  55   2.0000      -3.189092       -86.7796
  56   2.0000      -3.188681       -86.7684
  57   2.0000      -3.180899       -86.5567
  58   2.0000      -3.180898       -86.5566
  59   2.0000      -3.180881       -86.5562
  60   2.0000      -3.180880       -86.5561
  61   2.0000      -3.179920       -86.5300
  62   2.0000      -3.179904       -86.5296
  63   2.0000      -1.205944       -32.8154
  64   2.0000      -1.126327       -30.6489
  65   2.0000      -1.125961       -30.6389
  66   2.0000      -1.099552       -29.9203
  67   2.0000      -1.084462       -29.5097
  68   2.0000      -1.083611       -29.4866
  69   2.0000      -1.009776       -27.4774
  70   2.0000      -1.009492       -27.4697
  71   2.0000      -1.008936       -27.4546
  72   2.0000      -0.950052       -25.8522
  73   2.0000      -0.931551       -25.3488
  74   2.0000      -0.931371       -25.3439
  75   2.0000      -0.928814       -25.2743
  76   2.0000      -0.927168       -25.2295
  77   2.0000      -0.927123       -25.2283
  78   2.0000      -0.925796       -25.1922
  79   2.0000      -0.908062       -24.7096
  80   2.0000      -0.907988       -24.7076
  81   2.0000      -0.796499       -21.6738
  82   2.0000      -0.795734       -21.6530
  83   2.0000      -0.742981       -20.2175
  84   2.0000      -0.727332       -19.7917
  85   2.0000      -0.726958       -19.7815
  86   2.0000      -0.705266       -19.1913
  87   2.0000      -0.649439       -17.6721
  88   2.0000      -0.632642       -17.2151
  89   2.0000      -0.620678       -16.8895
  90   2.0000      -0.620126       -16.8745
  91   2.0000      -0.618995       -16.8437
  92   2.0000      -0.616754       -16.7827
  93   2.0000      -0.606178       -16.4949
  94   2.0000      -0.604006       -16.4358
  95   2.0000      -0.603234       -16.4148
  96   2.0000      -0.585047       -15.9199
  97   2.0000      -0.574465       -15.6320
  98   2.0000      -0.567093       -15.4314
  99   2.0000      -0.561926       -15.2908
 100   2.0000      -0.557095       -15.1593
 101   2.0000      -0.555444       -15.1144
 102   2.0000      -0.545223       -14.8363
 103   2.0000      -0.542340       -14.7578
 104   2.0000      -0.527611       -14.3570
 105   2.0000      -0.525229       -14.2922
 106   2.0000      -0.523523       -14.2458
 107   2.0000      -0.522530       -14.2188
 108   2.0000      -0.519895       -14.1471
 109   2.0000      -0.514453       -13.9990
 110   2.0000      -0.513602       -13.9758
 111   2.0000      -0.511590       -13.9211
 112   2.0000      -0.509963       -13.8768
 113   2.0000      -0.493860       -13.4386
 114   2.0000      -0.491324       -13.3696
 115   2.0000      -0.475393       -12.9361
 116   2.0000      -0.475229       -12.9317
 117   2.0000      -0.465001       -12.6533
 118   2.0000      -0.463966       -12.6252
 119   2.0000      -0.461039       -12.5455
 120   2.0000      -0.459798       -12.5117
 121   2.0000      -0.456415       -12.4197
 122   2.0000      -0.450298       -12.2532
 123   2.0000      -0.448512       -12.2046
 124   2.0000      -0.445127       -12.1125
 125   2.0000      -0.444793       -12.1034
 126   2.0000      -0.414274       -11.2730
 127   2.0000      -0.414033       -11.2664
 128   2.0000      -0.402334       -10.9481
 129   2.0000      -0.395770       -10.7695
 130   2.0000      -0.329291        -8.9605
 131   2.0000      -0.327708        -8.9174
 132   0.0000       0.082790         2.2528
 133   0.0000       0.096291         2.6202
 134   0.0000       0.111311         3.0289
 135   0.0000       0.131503         3.5784
 136   0.0000       0.143376         3.9015

MULLIKEN ATOMIC CHARGES
-----------------------
   0 C :    0.147735
   1 C :   -0.122642
   2 C :    0.116992
   3 C :   -0.087960
   4 C :    0.147739
   5 C :   -0.122635
   6 C :   -0.240442
   7 C :    0.059222
   8 C :   -0.316213
   9 C :   -0.329772
  10 C :   -0.341916
  11 C :   -0.240449
  12 C :    0.059218
  13 C :   -0.341919
  14 C :   -0.329763
  15 C :   -0.316213
  16 C :   -0.240570
  17 C :    0.056233
  18 C :   -0.337624
  19 C :   -0.337643
  20 C :   -0.314374
  21 Br:   -0.155835
  22 Br:   -0.155831
  23 Br:   -0.144413
  24 H :    0.153760
  25 H :    0.155136
  26 H :    0.103135
  27 H :    0.101343
  28 H :    0.101990
  29 H :    0.111167
  30 H :    0.114072
  31 H :    0.106809
  32 H :    0.110608
  33 H :    0.112358
  34 H :    0.122905
  35 H :    0.155135
  36 H :    0.153761
  37 H :    0.110607
  38 H :    0.122910
  39 H :    0.112356
  40 H :    0.111171
  41 H :    0.106808
  42 H :    0.114067
  43 H :    0.103135
  44 H :    0.101993
  45 H :    0.101342
  46 H :    0.155888
  47 H :    0.155883
  48 H :    0.110419
  49 H :    0.118349
  50 H :    0.113791
  51 H :    0.110420
  52 H :    0.113796
  53 H :    0.118359
  54 H :    0.103608
  55 H :    0.100997
  56 H :    0.100995
Sum of atomic charges:   -0.0000000

LOEWDIN ATOMIC CHARGES
----------------------
   0 C :   -0.204496
   1 C :   -0.072778
   2 C :   -0.204940
   3 C :   -0.072069
   4 C :   -0.204492
   5 C :   -0.072778
   6 C :    0.065662
   7 C :   -0.093828
   8 C :    0.116266
   9 C :    0.108477
  10 C :    0.110078
  11 C :    0.065666
  12 C :   -0.093826
  13 C :    0.110079
  14 C :    0.108479
  15 C :    0.116268
  16 C :    0.065227
  17 C :   -0.093419
  18 C :    0.108605
  19 C :    0.108603
  20 C :    0.116425
  21 Br:    0.290975
  22 Br:    0.290971
  23 Br:    0.281602
  24 H :   -0.029837
  25 H :   -0.026693
  26 H :   -0.025118
  27 H :   -0.026888
  28 H :   -0.026413
  29 H :   -0.025791
  30 H :   -0.030686
  31 H :   -0.033728
  32 H :   -0.025635
  33 H :   -0.029403
  34 H :   -0.036795
  35 H :   -0.026690
  36 H :   -0.029838
  37 H :   -0.025635
  38 H :   -0.036801
  39 H :   -0.029401
  40 H :   -0.025795
  41 H :   -0.033722
  42 H :   -0.030685
  43 H :   -0.025117
  44 H :   -0.026416
  45 H :   -0.026887
  46 H :   -0.028822
  47 H :   -0.028823
  48 H :   -0.025705
  49 H :   -0.034901
  50 H :   -0.029610
  51 H :   -0.025708
  52 H :   -0.029612
  53 H :   -0.034909
  54 H :   -0.024895
  55 H :   -0.026900
  56 H :   -0.026900

  Mayer bond orders larger than 0.1
B(  0-C ,  1-C ) :   1.3401 B(  0-C ,  3-C ) :   1.3521 B(  0-C , 22-Br) :   1.0105
B(  1-C ,  2-C ) :   1.3486 B(  1-C , 11-C ) :   0.9929 B(  2-C ,  5-C ) :   1.3486
B(  2-C , 23-Br) :   1.0245 B(  3-C ,  4-C ) :   1.3521 B(  3-C , 16-C ) :   0.9956
B(  4-C ,  5-C ) :   1.3401 B(  4-C , 21-Br) :   1.0105 B(  5-C ,  6-C ) :   0.9929
B(  6-C ,  7-C ) :   0.9322 B(  6-C , 24-H ) :   0.9786 B(  6-C , 25-H ) :   0.9707
B(  7-C ,  8-C ) :   0.9611 B(  7-C ,  9-C ) :   0.9480 B(  7-C , 10-C ) :   0.9427
B(  8-C , 26-H ) :   0.9830 B(  8-C , 27-H ) :   0.9850 B(  8-C , 28-H ) :   0.9820
B(  9-C , 29-H ) :   0.9868 B(  9-C , 30-H ) :   0.9790 B(  9-C , 31-H ) :   0.9809
B( 10-C , 32-H ) :   0.9850 B( 10-C , 33-H ) :   0.9786 B( 10-C , 34-H ) :   0.9793
B( 11-C , 12-C ) :   0.9322 B( 11-C , 35-H ) :   0.9707 B( 11-C , 36-H ) :   0.9786
B( 12-C , 13-C ) :   0.9427 B( 12-C , 14-C ) :   0.9480 B( 12-C , 15-C ) :   0.9611
B( 13-C , 37-H ) :   0.9850 B( 13-C , 38-H ) :   0.9793 B( 13-C , 39-H ) :   0.9786
B( 14-C , 40-H ) :   0.9868 B( 14-C , 41-H ) :   0.9809 B( 14-C , 42-H ) :   0.9790
B( 15-C , 43-H ) :   0.9830 B( 15-C , 44-H ) :   0.9820 B( 15-C , 45-H ) :   0.9850
B( 16-C , 17-C ) :   0.9339 B( 16-C , 46-H ) :   0.9739 B( 16-C , 47-H ) :   0.9739
B( 17-C , 18-C ) :   0.9443 B( 17-C , 19-C ) :   0.9443 B( 17-C , 20-C ) :   0.9607
B( 18-C , 48-H ) :   0.9853 B( 18-C , 49-H ) :   0.9798 B( 18-C , 50-H ) :   0.9780
B( 19-C , 51-H ) :   0.9853 B( 19-C , 52-H ) :   0.9780 B( 19-C , 53-H ) :   0.9798
B( 20-C , 54-H ) :   0.9828 B( 20-C , 55-H ) :   0.9836 B( 20-C , 56-H ) :   0.9836

E(0)                                       ...  -8532.059315111
E(0)                                       ...  -8532.059315111
E(CORR)(strong-pairs)                      ...     -4.456889203
E(CORR)(weak-pairs)                        ...     -0.011833400
E(CORR)(corrected)                         ...     -4.468722603
E(TOT)                                     ...  -8536.528037713
E(CCSD(T))                                 ...  -8536.728500074
FINAL SINGLE POINT ENERGY     -8536.728500073616

DIPOLE MOMENT
-------------
                                X             Y             Z
Electronic contribution:    -10.41288       0.00001      13.04350
Nuclear contribution   :     10.45050      -0.00001     -13.11083
                        -----------------------------------------
Total Dipole Moment    :      0.03761      -0.00000      -0.06733
                        -----------------------------------------
Magnitude (a.u.)       :      0.07713
Magnitude (Debye)      :      0.19604

Rotational constants in cm-1:     0.004865     0.004548     0.002785
Rotational constants in MHz :   145.847936   136.339183    83.481135

                             ****ORCA TERMINATED NORMALLY****
TOTAL RUN TIME: 0 days 9 hours 22 minutes 17 seconds 589 msec
