                         Program Version 4.1.x  -  STABLE  -
|  1> ! RHF DLPNO-CCSD(T) cc-pVTZ RIJK cc-pVTZ/JK cc-pVTZ/C
|  2> ! KDIIS SOSCF TightSCF TightPNO
|  3>
|  4> %pal nprocs 16 end
|  5>
|  6> %maxcore 7000
|  7>
|  8> %scf maxiter 300
|  9>      shift shift 0.2 erroff 0.1 end
| 10> end
| 11>
| 12> * xyzfile 0 1 trineopentylbenzene-tribr-allsyn.xyz
| 13>
| 14>
| 15>                          ****END OF INPUT****

CARTESIAN COORDINATES (ANGSTROEM)
---------------------------------
  C     -1.372370    0.076890   -0.611230
  C     -0.648780    1.285440   -0.577460
  C      0.751050    1.148490   -0.609970
  C     -0.790290   -1.203450   -0.577990
  C      0.618290   -1.226050   -0.611150
  C      1.436660   -0.082320   -0.577410
  C      2.951240   -0.161120   -0.530590
  C      3.632850   -0.204800    0.887830
  C      5.152560   -0.103750    0.640570
  C      3.199240    0.970110    1.786400
  C      3.343690   -1.523130    1.632430
  C     -1.337720    2.635980   -0.529180
  C     -1.636910    3.246020    0.890980
  C     -2.491350    4.507800    0.648800
  C     -2.426370    2.277170    1.793030
  C     -0.349510    3.661210    1.630260
  C     -1.615550   -2.475360   -0.528330
  C     -1.992410   -3.040190    0.892730
  C     -2.647350   -4.415790    0.650860
  C     -0.759620   -3.229460    1.798440
  C     -3.003600   -2.138410    1.627420
  Br     1.480180   -2.931570   -0.875270
  Br    -3.280030    0.182120   -0.877950
  Br     1.795970    2.747960   -0.874970
  H      3.277420   -1.046580   -1.080430
  H      3.356490    0.700780   -1.063490
  H      5.701640   -0.142000    1.588420
  H      5.510440   -0.928440    0.013090
  H      5.410550    0.837680    0.141680
  H      3.686720    0.884580    2.764610
  H      3.477110    1.936210    1.357990
  H      2.117510    0.975220    1.956740
  H      3.833670   -1.507050    2.613060
  H      2.273390   -1.677600    1.799580
  H      3.723420   -2.388760    1.082570
  H     -0.735200    3.361050   -1.080070
  H     -2.288470    2.556100   -1.058560
  H     -2.727940    5.002600    1.597710
  H     -1.961900    5.231350    0.017740
  H     -3.437440    4.257050    0.155310
  H     -2.589920    2.738150    2.773930
  H     -3.404000    2.029450    1.373030
  H     -1.883620    1.339910    1.955770
  H     -0.606600    4.076230    2.612000
  H      0.324360    2.815110    1.794600
  H      0.204150    4.426310    1.078530
  H     -2.545810   -2.315970   -1.077760
  H     -1.072440   -3.258710   -1.059310
  H     -2.955890   -4.869240    1.599730
  H     -3.538120   -4.326730    0.017800
  H     -1.950250   -5.104880    0.159950
  H     -1.076330   -3.605930    2.777990
  H     -0.048860   -3.945690    1.379190
  H     -0.229610   -2.285540    1.963260
  H     -3.237950   -2.569310    2.608040
  H     -2.612740   -1.130320    1.794170
  H     -3.940480   -2.044910    1.070740

 Total Charge           Charge          ....    0
 Multiplicity           Mult            ....    1
 Number of Electrons    NEL             ....  264
 Basis Dimension        Dim             .... 1221

ORBITAL ENERGIES
----------------

  NO   OCC          E(Eh)            E(eV)
   0   2.0000    -490.023702    -13334.2228
   1   2.0000    -490.023699    -13334.2228
   2   2.0000    -490.023582    -13334.2196
   3   2.0000     -65.164070     -1773.2045
   4   2.0000     -65.164068     -1773.2044
   5   2.0000     -65.163956     -1773.2014
   6   2.0000     -58.519329     -1592.3919
   7   2.0000     -58.519326     -1592.3918
   8   2.0000     -58.519214     -1592.3888
   9   2.0000     -58.517933     -1592.3539
  10   2.0000     -58.517931     -1592.3538
  11   2.0000     -58.517860     -1592.3519
  12   2.0000     -58.517858     -1592.3519
  13   2.0000     -58.517818     -1592.3508
  14   2.0000     -58.517746     -1592.3488
  15   2.0000     -11.312135      -307.8188
  16   2.0000     -11.312117      -307.8184
  17   2.0000     -11.312103      -307.8180
  18   2.0000     -11.280410      -306.9556
  19   2.0000     -11.280330      -306.9534
  20   2.0000     -11.280292      -306.9523
  21   2.0000     -11.245872      -306.0157
  22   2.0000     -11.245864      -306.0155
  23   2.0000     -11.245834      -306.0147
  24   2.0000     -11.233748      -305.6858
  25   2.0000     -11.233647      -305.6831
  26   2.0000     -11.233623      -305.6824
  27   2.0000     -11.214431      -305.1602
  28   2.0000     -11.214424      -305.1600
  29   2.0000     -11.214374      -305.1586
  30   2.0000     -11.210034      -305.0405
  31   2.0000     -11.210009      -305.0398
  32   2.0000     -11.210005      -305.0397
  33   2.0000     -11.209747      -305.0327
  34   2.0000     -11.209734      -305.0324
  35   2.0000     -11.209721      -305.0320
  36   2.0000      -9.837726      -267.6981
  37   2.0000      -9.837724      -267.6981
  38   2.0000      -9.837617      -267.6952
  39   2.0000      -7.449336      -202.7067
  40   2.0000      -7.449332      -202.7066
  41   2.0000      -7.449227      -202.7038
  42   2.0000      -7.442588      -202.5231
  43   2.0000      -7.442587      -202.5231
  44   2.0000      -7.442480      -202.5202
  45   2.0000      -7.442417      -202.5185
  46   2.0000      -7.442415      -202.5184
  47   2.0000      -7.442309      -202.5155
  48   2.0000      -3.193092       -86.8884
  49   2.0000      -3.193087       -86.8883
  50   2.0000      -3.192982       -86.8854
  51   2.0000      -3.189676       -86.7955
  52   2.0000      -3.189673       -86.7954
  53   2.0000      -3.189566       -86.7925
  54   2.0000      -3.189221       -86.7831
  55   2.0000      -3.189218       -86.7830
  56   2.0000      -3.189112       -86.7801
  57   2.0000      -3.180527       -86.5466
  58   2.0000      -3.180527       -86.5465
  59   2.0000      -3.180514       -86.5462
  60   2.0000      -3.180514       -86.5462
  61   2.0000      -3.180420       -86.5436
  62   2.0000      -3.180407       -86.5433
  63   2.0000      -1.205885       -32.8138
  64   2.0000      -1.126745       -30.6603
  65   2.0000      -1.126681       -30.6585
  66   2.0000      -1.100251       -29.9393
  67   2.0000      -1.084057       -29.4987
  68   2.0000      -1.084018       -29.4976
  69   2.0000      -1.009372       -27.4664
  70   2.0000      -1.009353       -27.4659
  71   2.0000      -1.008644       -27.4466
  72   2.0000      -0.950308       -25.8592
  73   2.0000      -0.931964       -25.3600
  74   2.0000      -0.931875       -25.3576
  75   2.0000      -0.929616       -25.2961
  76   2.0000      -0.928190       -25.2573
  77   2.0000      -0.928135       -25.2558
  78   2.0000      -0.927690       -25.2437
  79   2.0000      -0.908542       -24.7227
  80   2.0000      -0.908394       -24.7187
  81   2.0000      -0.796491       -21.6736
  82   2.0000      -0.796421       -21.6717
  83   2.0000      -0.744036       -20.2463
  84   2.0000      -0.727618       -19.7995
  85   2.0000      -0.727562       -19.7980
  86   2.0000      -0.705998       -19.2112
  87   2.0000      -0.650348       -17.6969
  88   2.0000      -0.634462       -17.2646
  89   2.0000      -0.622414       -16.9367
  90   2.0000      -0.622373       -16.9356
  91   2.0000      -0.617105       -16.7923
  92   2.0000      -0.617051       -16.7908
  93   2.0000      -0.605284       -16.4706
  94   2.0000      -0.605211       -16.4686
  95   2.0000      -0.604176       -16.4405
  96   2.0000      -0.586106       -15.9488
  97   2.0000      -0.576647       -15.6914
  98   2.0000      -0.564071       -15.3492
  99   2.0000      -0.564050       -15.3486
 100   2.0000      -0.554982       -15.1018
 101   2.0000      -0.554890       -15.0993
 102   2.0000      -0.545101       -14.8329
 103   2.0000      -0.540061       -14.6958
 104   2.0000      -0.529022       -14.3954
 105   2.0000      -0.527150       -14.3445
 106   2.0000      -0.527093       -14.3429
 107   2.0000      -0.521656       -14.1950
 108   2.0000      -0.521582       -14.1930
 109   2.0000      -0.513725       -13.9792
 110   2.0000      -0.513654       -13.9772
 111   2.0000      -0.512213       -13.9380
 112   2.0000      -0.510617       -13.8946
 113   2.0000      -0.498473       -13.5641
 114   2.0000      -0.498435       -13.5631
 115   2.0000      -0.471450       -12.8288
 116   2.0000      -0.471366       -12.8265
 117   2.0000      -0.464749       -12.6465
 118   2.0000      -0.463255       -12.6058
 119   2.0000      -0.462296       -12.5797
 120   2.0000      -0.462248       -12.5784
 121   2.0000      -0.455199       -12.3866
 122   2.0000      -0.449339       -12.2271
 123   2.0000      -0.449273       -12.2253
 124   2.0000      -0.447837       -12.1863
 125   2.0000      -0.447810       -12.1855
 126   2.0000      -0.412823       -11.2335
 127   2.0000      -0.412765       -11.2319
 128   2.0000      -0.405233       -11.0269
 129   2.0000      -0.395348       -10.7580
 130   2.0000      -0.328800        -8.9471
 131   2.0000      -0.328661        -8.9433
 132   0.0000       0.093840         2.5535
 133   0.0000       0.093846         2.5537
 134   0.0000       0.100856         2.7444
 135   0.0000       0.129190         3.5154
 136   0.0000       0.144207         3.9241

MULLIKEN ATOMIC CHARGES
-----------------------
   0 C :    0.133260
   1 C :   -0.108436
   2 C :    0.132573
   3 C :   -0.108135
   4 C :    0.134135
   5 C :   -0.108180
   6 C :   -0.237746
   7 C :    0.055682
   8 C :   -0.316489
   9 C :   -0.349096
  10 C :   -0.334632
  11 C :   -0.237939
  12 C :    0.055530
  13 C :   -0.316396
  14 C :   -0.349460
  15 C :   -0.334608
  16 C :   -0.238580
  17 C :    0.055791
  18 C :   -0.316247
  19 C :   -0.349761
  20 C :   -0.334496
  21 Br:   -0.151667
  22 Br:   -0.151207
  23 Br:   -0.151297
  24 H :    0.155563
  25 H :    0.158250
  26 H :    0.103606
  27 H :    0.102123
  28 H :    0.101837
  29 H :    0.113641
  30 H :    0.125871
  31 H :    0.106931
  32 H :    0.110856
  33 H :    0.115932
  34 H :    0.114426
  35 H :    0.155524
  36 H :    0.158345
  37 H :    0.103654
  38 H :    0.101973
  39 H :    0.101955
  40 H :    0.113742
  41 H :    0.126114
  42 H :    0.106831
  43 H :    0.110774
  44 H :    0.116029
  45 H :    0.114260
  46 H :    0.155428
  47 H :    0.158423
  48 H :    0.103583
  49 H :    0.101977
  50 H :    0.101787
  51 H :    0.113830
  52 H :    0.126235
  53 H :    0.106973
  54 H :    0.110778
  55 H :    0.116123
  56 H :    0.114033
Sum of atomic charges:   -0.0000000

LOEWDIN ATOMIC CHARGES
----------------------
   0 C :   -0.201376
   1 C :   -0.072112
   2 C :   -0.201523
   3 C :   -0.072117
   4 C :   -0.201306
   5 C :   -0.072019
   6 C :    0.065947
   7 C :   -0.093836
   8 C :    0.116524
   9 C :    0.110108
  10 C :    0.108574
  11 C :    0.066053
  12 C :   -0.093686
  13 C :    0.116551
  14 C :    0.110187
  15 C :    0.108451
  16 C :    0.066155
  17 C :   -0.093687
  18 C :    0.116365
  19 C :    0.110282
  20 C :    0.108396
  21 Br:    0.284055
  22 Br:    0.284113
  23 Br:    0.284476
  24 H :   -0.028474
  25 H :   -0.030470
  26 H :   -0.024960
  27 H :   -0.026524
  28 H :   -0.026680
  29 H :   -0.025302
  30 H :   -0.034078
  31 H :   -0.032493
  32 H :   -0.025798
  33 H :   -0.031872
  34 H :   -0.031247
  35 H :   -0.028605
  36 H :   -0.030649
  37 H :   -0.024996
  38 H :   -0.026416
  39 H :   -0.026767
  40 H :   -0.025344
  41 H :   -0.034178
  42 H :   -0.032384
  43 H :   -0.025793
  44 H :   -0.032122
  45 H :   -0.031112
  46 H :   -0.028596
  47 H :   -0.030702
  48 H :   -0.025042
  49 H :   -0.026376
  50 H :   -0.026671
  51 H :   -0.025300
  52 H :   -0.034285
  53 H :   -0.032487
  54 H :   -0.025759
  55 H :   -0.032046
  56 H :   -0.031043

  Mayer bond orders larger than 0.1
B(  0-C ,  1-C ) :   1.3501 B(  0-C ,  3-C ) :   1.3481 B(  0-C , 22-Br) :   1.0122
B(  1-C ,  2-C ) :   1.3489 B(  1-C , 11-C ) :   0.9969 B(  2-C ,  5-C ) :   1.3504
B(  2-C , 23-Br) :   1.0120 B(  3-C ,  4-C ) :   1.3498 B(  3-C , 16-C ) :   0.9969
B(  4-C ,  5-C ) :   1.3486 B(  4-C , 21-Br) :   1.0117 B(  5-C ,  6-C ) :   0.9969
B(  6-C ,  7-C ) :   0.9331 B(  6-C , 24-H ) :   0.9717 B(  6-C , 25-H ) :   0.9753
B(  7-C ,  8-C ) :   0.9621 B(  7-C ,  9-C ) :   0.9441 B(  7-C , 10-C ) :   0.9468
B(  8-C , 26-H ) :   0.9827 B(  8-C , 27-H ) :   0.9826 B(  8-C , 28-H ) :   0.9844
B(  9-C , 29-H ) :   0.9875 B(  9-C , 30-H ) :   0.9770 B(  9-C , 31-H ) :   0.9795
B( 10-C , 32-H ) :   0.9859 B( 10-C , 33-H ) :   0.9766 B( 10-C , 34-H ) :   0.9801
B( 11-C , 12-C ) :   0.9328 B( 11-C , 35-H ) :   0.9717 B( 11-C , 36-H ) :   0.9754
B( 12-C , 13-C ) :   0.9620 B( 12-C , 14-C ) :   0.9442 B( 12-C , 15-C ) :   0.9469
B( 13-C , 37-H ) :   0.9826 B( 13-C , 38-H ) :   0.9826 B( 13-C , 39-H ) :   0.9844
B( 14-C , 40-H ) :   0.9875 B( 14-C , 41-H ) :   0.9770 B( 14-C , 42-H ) :   0.9795
B( 15-C , 43-H ) :   0.9860 B( 15-C , 44-H ) :   0.9766 B( 15-C , 45-H ) :   0.9802
B( 16-C , 17-C ) :   0.9328 B( 16-C , 46-H ) :   0.9717 B( 16-C , 47-H ) :   0.9755
B( 17-C , 18-C ) :   0.9619 B( 17-C , 19-C ) :   0.9439 B( 17-C , 20-C ) :   0.9470
B( 18-C , 48-H ) :   0.9827 B( 18-C , 49-H ) :   0.9825 B( 18-C , 50-H ) :   0.9845
B( 19-C , 51-H ) :   0.9874 B( 19-C , 52-H ) :   0.9770 B( 19-C , 53-H ) :   0.9795
B( 20-C , 54-H ) :   0.9859 B( 20-C , 55-H ) :   0.9766 B( 20-C , 56-H ) :   0.9803

E(0)                                       ...  -8532.060569841
E(0)                                       ...  -8532.060569841
E(CORR)(strong-pairs)                      ...     -4.457553188
E(CORR)(weak-pairs)                        ...     -0.012188680
E(CORR)(corrected)                         ...     -4.469741868
E(TOT)                                     ...  -8536.530311708
E(CCSD(T))                                 ...  -8536.730899705
FINAL SINGLE POINT ENERGY     -8536.730899705371

DIPOLE MOMENT
-------------
                                X             Y             Z
Electronic contribution:     -0.08565      -0.03244     -55.91449
Nuclear contribution   :      0.08657       0.03292      56.30178
                        -----------------------------------------
Total Dipole Moment    :      0.00092       0.00048       0.38729
                        -----------------------------------------
Magnitude (a.u.)       :      0.38729
Magnitude (Debye)      :      0.98442

Rotational constants in cm-1:     0.004768     0.004766     0.002829
Rotational constants in MHz :   142.941085   142.868836    84.813332

                             ****ORCA TERMINATED NORMALLY****
TOTAL RUN TIME: 0 days 9 hours 52 minutes 14 seconds 420 msec
