                         Program Version 4.1.x  -  STABLE  -
|  1> ! RHF DLPNO-CCSD(T) cc-pVTZ RIJK cc-pVTZ/JK cc-pVTZ/C
|  2> ! KDIIS SOSCF TightSCF TightPNO
|  3>
|  4> %pal nprocs 8 end
|  5>
|  6> %maxcore 8000
|  7>
|  8> %scf maxiter 300
|  9>      shift shift 0.2 erroff 0.1 end
| 10> end
| 11>
| 12> * xyzfile 0 1 vinyl_alcohol_s_trans.xyz
| 13>
| 14>
| 15>                          ****END OF INPUT****

CARTESIAN COORDINATES (ANGSTROEM)
---------------------------------
  C     -1.229130   -0.180730    0.000000
  C     -0.036420    0.415720   -0.000050
  O      1.135800   -0.296530   -0.000000
  H      1.890100    0.303540    0.000140
  H     -2.129660    0.421000    0.000110
  H     -1.323920   -1.261290    0.000010
  H      0.070310    1.499110    0.000020

 Total Charge           Charge          ....    0
 Multiplicity           Mult            ....    1
 Number of Electrons    NEL             ....   24
 Basis Dimension        Dim             ....  146

ORBITAL ENERGIES
----------------

  NO   OCC          E(Eh)            E(eV)
   0   2.0000     -20.584850      -560.1423
   1   2.0000     -11.295935      -307.3780
   2   2.0000     -11.209997      -305.0395
   3   2.0000      -1.394893       -37.9570
   4   2.0000      -1.020424       -27.7672
   5   2.0000      -0.793892       -21.6029
   6   2.0000      -0.736123       -20.0309
   7   2.0000      -0.618663       -16.8347
   8   2.0000      -0.572928       -15.5902
   9   2.0000      -0.569077       -15.4854
  10   2.0000      -0.517097       -14.0709
  11   2.0000      -0.344305        -9.3690
  12   0.0000       0.133586         3.6351
  13   0.0000       0.176141         4.7930
  14   0.0000       0.179588         4.8868
  15   0.0000       0.194224         5.2851
  16   0.0000       0.224704         6.1145

MULLIKEN ATOMIC CHARGES
-----------------------
   0 C :   -0.386056
   1 C :    0.084713
   2 O :   -0.333987
   3 H :    0.229843
   4 H :    0.143679
   5 H :    0.144818
   6 H :    0.116990
Sum of atomic charges:    0.0000000

LOEWDIN ATOMIC CHARGES
----------------------
   0 C :    0.037848
   1 C :   -0.111432
   2 O :    0.373636
   3 H :   -0.171879
   4 H :   -0.042996
   5 H :   -0.042431
   6 H :   -0.042746

  Mayer bond orders larger than 0.1
B(  0-C ,  1-C ) :   1.8436 B(  0-C ,  4-H ) :   0.9697 B(  0-C ,  5-H ) :   0.9586
B(  1-C ,  2-O ) :   1.0898 B(  1-C ,  6-H ) :   0.9714 B(  2-O ,  3-H ) :   0.9913

E(0)                                       ...   -152.952389841
E(0)                                       ...   -152.952389841
E(CORR)(strong-pairs)                      ...     -0.590919897
E(CORR)(weak-pairs)                        ...     -0.000272239
E(CORR)(corrected)                         ...     -0.591192136
E(TOT)                                     ...   -153.543581977
E(CCSD(T))                                 ...   -153.566874591
FINAL SINGLE POINT ENERGY      -153.566874591484

DIPOLE MOMENT
-------------
                                X             Y             Z
Electronic contribution:      1.83093      -0.26893      -0.00015
Nuclear contribution   :     -1.50944       0.97987       0.00029
                        -----------------------------------------
Total Dipole Moment    :      0.32150       0.71093       0.00014
                        -----------------------------------------
Magnitude (a.u.)       :      0.78025
Magnitude (Debye)      :      1.98323

Rotational constants in cm-1:     2.121470     0.345831     0.297357
Rotational constants in MHz : 63600.074335 10367.742720  8914.541962

                             ****ORCA TERMINATED NORMALLY****
TOTAL RUN TIME: 0 days 0 hours 1 minutes 2 seconds 772 msec
