                         Program Version 4.1.x  -  STABLE  -
|  1> ! RHF DLPNO-CCSD(T) cc-pVTZ RIJK cc-pVTZ/JK cc-pVTZ/C
|  2> ! KDIIS SOSCF TightSCF TightPNO
|  3>
|  4> %pal nprocs 8 end
|  5>
|  6> %maxcore 8000
|  7>
|  8> %scf maxiter 300
|  9>      shift shift 0.2 erroff 0.1 end
| 10> end
| 11>
| 12> * xyzfile 0 1 vinyl_alcohol_s_cis.xyz
| 13>
| 14>
| 15>                          ****END OF INPUT****

CARTESIAN COORDINATES (ANGSTROEM)
---------------------------------
  C      1.205020   -0.206610   -0.000000
  C      0.036550    0.441800    0.000000
  O     -1.209730   -0.114660   -0.000010
  H     -1.138500   -1.079960    0.000060
  H      2.132500    0.352930    0.000020
  H      1.270000   -1.291860   -0.000020
  H     -0.035520    1.525020    0.000010

 Total Charge           Charge          ....    0
 Multiplicity           Mult            ....    1
 Number of Electrons    NEL             ....   24
 Basis Dimension        Dim             ....  146

ORBITAL ENERGIES
----------------

  NO   OCC          E(Eh)            E(eV)
   0   2.0000     -20.588851      -560.2511
   1   2.0000     -11.300629      -307.5057
   2   2.0000     -11.215800      -305.1974
   3   2.0000      -1.399988       -38.0956
   4   2.0000      -1.020279       -27.7632
   5   2.0000      -0.830062       -22.5871
   6   2.0000      -0.678031       -18.4502
   7   2.0000      -0.666591       -18.1389
   8   2.0000      -0.577072       -15.7029
   9   2.0000      -0.545651       -14.8479
  10   2.0000      -0.539795       -14.6886
  11   2.0000      -0.349631        -9.5140
  12   0.0000       0.145640         3.9631
  13   0.0000       0.169092         4.6012
  14   0.0000       0.175822         4.7844
  15   0.0000       0.194021         5.2796
  16   0.0000       0.222236         6.0473

MULLIKEN ATOMIC CHARGES
-----------------------
   0 C :   -0.410387
   1 C :    0.085768
   2 O :   -0.353386
   3 H :    0.239676
   4 H :    0.139955
   5 H :    0.125473
   6 H :    0.172901
Sum of atomic charges:    0.0000000

LOEWDIN ATOMIC CHARGES
----------------------
   0 C :    0.015436
   1 C :   -0.108898
   2 O :    0.372957
   3 H :   -0.158960
   4 H :   -0.041930
   5 H :   -0.050772
   6 H :   -0.027833

  Mayer bond orders larger than 0.1
B(  0-C ,  1-C ) :   1.8166 B(  0-C ,  4-H ) :   0.9607 B(  0-C ,  5-H ) :   0.9724
B(  1-C ,  2-O ) :   1.1083 B(  1-C ,  6-H ) :   0.9561 B(  2-O ,  3-H ) :   0.9760

E(0)                                       ...   -152.954906561
E(0)                                       ...   -152.954906561
E(CORR)(strong-pairs)                      ...     -0.590768643
E(CORR)(weak-pairs)                        ...     -0.000274348
E(CORR)(corrected)                         ...     -0.591042991
E(TOT)                                     ...   -153.545949552
E(CCSD(T))                                 ...   -153.569291434
FINAL SINGLE POINT ENERGY      -153.569291434275

DIPOLE MOMENT
-------------
                                X             Y             Z
Electronic contribution:     -2.04226       0.18995      -0.00003
Nuclear contribution   :      2.26059      -0.50716       0.00007
                        -----------------------------------------
Total Dipole Moment    :      0.21834      -0.31721       0.00005
                        -----------------------------------------
Magnitude (a.u.)       :      0.38509
Magnitude (Debye)      :      0.97883

Rotational constants in cm-1:     2.009744     0.349161     0.297479
Rotational constants in MHz : 60250.615397 10467.581656  8918.188852

                             ****ORCA TERMINATED NORMALLY****
TOTAL RUN TIME: 0 days 0 hours 1 minutes 4 seconds 715 msec
