 Gaussian 09, Revision A.01,
 Gaussian 09:  EM64L-G09RevA.01  8-May-2009

 -------------
 # mp2/cc-pVTZ
 -------------

 ---------------------------------
 1-2-difluoroethane-a_single_point
 ---------------------------------
 Symbolic Z-matrix:
 Charge =  0 Multiplicity = 1

                         Standard orientation:
 ---------------------------------------------------------------------
 Center     Atomic      Atomic             Coordinates (Angstroms)
 Number     Number       Type             X           Y           Z
 ---------------------------------------------------------------------
      1          6           0        0.561441   -0.512603    0.000015
      2          9           0        1.779853    0.182885   -0.000019
      3          6           0       -0.561447    0.512614    0.000016
      4          9           0       -1.779846   -0.182895   -0.000020
      5          1           0        0.527740   -1.139604    0.895621
      6          1           0        0.527704   -1.139662   -0.895536
      7          1           0       -0.527762    1.139619    0.895615
      8          1           0       -0.527709    1.139677   -0.895535
 ---------------------------------------------------------------------

 SCF Done:  E(RHF) =  -277.032521429     A.U. after   10 cycles
 E2 =    -0.8441878908D+00 EUMP2 =    -0.27787670931937D+03

 The electronic state is 1-A.
 Alpha  occ. eigenvalues --  -26.28716 -26.28716 -11.32530 -11.32466  -1.59619
 Alpha  occ. eigenvalues --   -1.59085  -1.04165  -0.88349  -0.73492  -0.71806
 Alpha  occ. eigenvalues --   -0.70681  -0.68360  -0.65605  -0.62411  -0.56740
 Alpha  occ. eigenvalues --   -0.51541  -0.51367
 Alpha virt. eigenvalues --    0.14456   0.16833   0.18118   0.21064   0.23298
 Alpha virt. eigenvalues --    0.31679   0.35273   0.36990   0.42729   0.47113
 Alpha virt. eigenvalues --    0.48935   0.56022   0.57743   0.58630   0.59513

 Mulliken atomic charges:
              1
     1  C    0.167239
     2  F   -0.317916
     3  C    0.167237
     4  F   -0.317916
     5  H    0.075335
     6  H    0.075342
     7  H    0.075338
     8  H    0.075340
 Sum of Mulliken atomic charges =   0.00000

 Dipole moment (field-independent basis, Debye):
    X=              0.0000    Y=              0.0000    Z=              0.0001  Tot=              0.0001
 Quadrupole moment (field-independent basis, Debye-Ang):
   XX=            -30.9594   YY=            -20.9871   ZZ=            -21.2078
   XY=             -2.2151   XZ=              0.0000   YZ=              0.0000

 Normal termination of Gaussian 09 at Sun Feb 14 21:34:20 2016.
