 Gaussian 09, Revision A.01,
 Gaussian 09:  EM64L-G09RevA.01  8-May-2009

 -------------
 # mp2/cc-pVTZ
 -------------

 ---------------------------------
 1-2-dichloroethane-a_single_point
 ---------------------------------
 Symbolic Z-matrix:
 Charge =  0 Multiplicity = 1

                         Standard orientation:
 ---------------------------------------------------------------------
 Center     Atomic      Atomic             Coordinates (Angstroms)
 Number     Number       Type             X           Y           Z
 ---------------------------------------------------------------------
      1          6           0       -0.490107   -0.579937    0.000023
      2         17           0       -2.185060    0.070502   -0.000011
      3          6           0        0.490097    0.579963    0.000017
      4         17           0        2.185063   -0.070515   -0.000009
      5          1           0       -0.381467   -1.197554   -0.891386
      6          1           0       -0.381507   -1.197527    0.891436
      7          1           0        0.381499    1.197574   -0.891382
      8          1           0        0.381483    1.197580    0.891427
 ---------------------------------------------------------------------

 SCF Done:  E(RHF) =  -997.134668588     A.U. after   11 cycles
 E2 =    -0.7243239461D+00 EUMP2 =    -0.99785899253433D+03

 The electronic state is 1-A.
 Alpha  occ. eigenvalues -- -104.83635-104.83635 -11.31733 -11.31669 -10.56116
 Alpha  occ. eigenvalues --  -10.56116  -8.02790  -8.02790  -8.02617  -8.02617
 Alpha  occ. eigenvalues --   -8.02612  -8.02612  -1.16894  -1.11547  -0.97689
 Alpha  occ. eigenvalues --   -0.85536  -0.68643  -0.60810  -0.59863  -0.57731
 Alpha  occ. eigenvalues --   -0.51913  -0.46070  -0.45023  -0.44687  -0.44146
 Alpha virt. eigenvalues --    0.13059   0.15536   0.17026   0.17729   0.21060
 Alpha virt. eigenvalues --    0.21435   0.27541   0.34781   0.39377   0.40453
 Alpha virt. eigenvalues --    0.43015   0.44364   0.44905   0.47764   0.49182

 Mulliken atomic charges:
              1
     1  C   -0.060369
     2  Cl  -0.215708
     3  C   -0.060370
     4  Cl  -0.215718
     5  H    0.138038
     6  H    0.138044
     7  H    0.138046
     8  H    0.138039
 Sum of Mulliken atomic charges =   0.00000

 Dipole moment (field-independent basis, Debye):
    X=             -0.0001    Y=              0.0001    Z=              0.0001  Tot=              0.0001
 Quadrupole moment (field-independent basis, Debye-Ang):
   XX=            -47.0354   YY=            -36.9129   ZZ=            -37.7297
   XY=              0.5779   XZ=             -0.0001   YZ=              0.0000

 Normal termination of Gaussian 09 at Sun Feb 14 21:31:12 2016.
