 Gaussian 09, Revision A.01,
 Gaussian 09:  EM64L-G09RevA.01  8-May-2009

 -------------
 # mp2/cc-pVTZ
 -------------

 ---------------------------------
 1-2-difluoroethane-g_single_point
 ---------------------------------
 Symbolic Z-matrix:
 Charge =  0 Multiplicity = 1

                         Standard orientation:
 ---------------------------------------------------------------------
 Center     Atomic      Atomic             Coordinates (Angstroms)
 Number     Number       Type             X           Y           Z
 ---------------------------------------------------------------------
      1          6           0        0.682305    0.510754   -0.319991
      2          9           0        1.460080   -0.544515    0.172193
      3          6           0       -0.682296    0.510750    0.319987
      4          9           0       -1.460088   -0.544509   -0.172192
      5          1           0        0.606952    0.390074   -1.405268
      6          1           0        1.203388    1.446013   -0.082966
      7          1           0       -0.606941    0.390096    1.405269
      8          1           0       -1.203380    1.446007    0.082971
 ---------------------------------------------------------------------

 SCF Done:  E(RHF) =  -277.032908100     A.U. after   10 cycles
 E2 =    -0.8450241434D+00 EUMP2 =    -0.27787793224343D+03

 The electronic state is 1-A.
 Alpha  occ. eigenvalues --  -26.28045 -26.28045 -11.32551 -11.32483  -1.59297
 Alpha  occ. eigenvalues --   -1.58286  -1.04800  -0.87905  -0.72768  -0.72653
 Alpha  occ. eigenvalues --   -0.69880  -0.66989  -0.66447  -0.61877  -0.54387
 Alpha  occ. eigenvalues --   -0.53299  -0.51399
 Alpha virt. eigenvalues --    0.13777   0.17312   0.19587   0.20765   0.23824
 Alpha virt. eigenvalues --    0.26344   0.31029   0.38796   0.48537   0.49420
 Alpha virt. eigenvalues --    0.50667   0.54041   0.58173   0.58531   0.60281

 Mulliken atomic charges:
              1
     1  C    0.176153
     2  F   -0.311848
     3  C    0.176156
     4  F   -0.311847
     5  H    0.075510
     6  H    0.060185
     7  H    0.075508
     8  H    0.060183
 Sum of Mulliken atomic charges =   0.00000

 Dipole moment (field-independent basis, Debye):
    X=              0.0000    Y=              3.0626    Z=              0.0000  Tot=              3.0626
 Quadrupole moment (field-independent basis, Debye-Ang):
   XX=            -26.9227   YY=            -22.1574   ZZ=            -21.1670
   XY=              0.0000   XZ=             -1.5598   YZ=              0.0000

 Normal termination of Gaussian 09 at Sun Feb 14 21:35:42 2016.
