 Gaussian 09, Revision A.01,
 Gaussian 09:  EM64L-G09RevA.01  8-May-2009

 -------------
 # mp2/cc-pVTZ
 -------------

 ---------------------------------
 1-2-dichloroethane-g_single_point
 ---------------------------------
 Symbolic Z-matrix:
 Charge =  0 Multiplicity = 1

                         Standard orientation:
 ---------------------------------------------------------------------
 Center     Atomic      Atomic             Coordinates (Angstroms)
 Number     Number       Type             X           Y           Z
 ---------------------------------------------------------------------
      1          6           0       -0.654044    0.894588    0.382326
      2         17           0       -1.747094   -0.471005   -0.080926
      3          6           0        0.654042    0.894589   -0.382326
      4         17           0        1.747095   -0.471004    0.080926
      5          1           0       -0.489598    0.822815    1.458044
      6          1           0       -1.196369    1.816729    0.158270
      7          1           0        0.489596    0.822817   -1.458044
      8          1           0        1.196365    1.816730   -0.158269
 ---------------------------------------------------------------------

 SCF Done:  E(RHF) =  -997.131615347     A.U. after   11 cycles
 E2 =    -0.7250842752D+00 EUMP2 =    -0.99785669962248D+03

 The electronic state is 1-A.
 Alpha  occ. eigenvalues -- -104.83019-104.83019 -11.31685 -11.31620 -10.55504
 Alpha  occ. eigenvalues --  -10.55504  -8.02180  -8.02180  -8.02003  -8.02003
 Alpha  occ. eigenvalues --   -8.01998  -8.01998  -1.16651  -1.10767  -0.98496
 Alpha  occ. eigenvalues --   -0.84470  -0.66559  -0.65080  -0.59963  -0.54087
 Alpha  occ. eigenvalues --   -0.52754  -0.45397  -0.44727  -0.43814  -0.43664
 Alpha virt. eigenvalues --    0.12217   0.16652   0.17171   0.17981   0.19832
 Alpha virt. eigenvalues --    0.19962   0.28423   0.37115   0.38229   0.40306
 Alpha virt. eigenvalues --    0.43865   0.44187   0.45049   0.45862   0.47946

 Mulliken atomic charges:
              1
     1  C   -0.067304
     2  Cl  -0.199431
     3  C   -0.067304
     4  Cl  -0.199432
     5  H    0.134925
     6  H    0.131810
     7  H    0.134925
     8  H    0.131810
 Sum of Mulliken atomic charges =   0.00000

 Dipole moment (field-independent basis, Debye):
    X=              0.0000    Y=              3.0887    Z=              0.0000  Tot=              3.0887
 Quadrupole moment (field-independent basis, Debye-Ang):
   XX=            -43.5213   YY=            -35.4398   ZZ=            -37.3864
   XY=              0.0000   XZ=             -0.6515   YZ=              0.0000

 Normal termination of Gaussian 09 at Sun Feb 14 21:33:00 2016.
