 Gaussian 09, Revision A.01,
 Gaussian 09:  EM64L-G09RevA.01  8-May-2009

 -------------
 # mp2/cc-pVTZ
 -------------

 ------------------------------------
 1-3-dichloropropane-a-a_single_point
 ------------------------------------
 Symbolic Z-matrix:
 Charge =  0 Multiplicity = 1

                         Standard orientation:
 ---------------------------------------------------------------------
 Center     Atomic      Atomic             Coordinates (Angstroms)
 Number     Number       Type             X           Y           Z
 ---------------------------------------------------------------------
      1          6           0        1.252700   -0.691735    0.000000
      2         17           0        2.761456    0.319120    0.000000
      3          6           0        0.000000    0.181551    0.000000
      4          6           0       -1.252648   -0.691814    0.000000
      5         17           0       -2.761480    0.318918    0.000000
      6          1           0        1.308954   -1.323186    0.888940
      7          1           0        1.308954   -1.323186   -0.888940
      8          1           0       -0.000039    0.829166    0.882007
      9          1           0       -0.000039    0.829166   -0.882007
     10          1           0       -1.308862   -1.323304   -0.888920
     11          1           0       -1.308862   -1.323304    0.888920
 ---------------------------------------------------------------------

 SCF Done:  E(RHF) =  -1036.18216516     A.U. after   11 cycles
 E2 =    -0.8984378736D+00 EUMP2 =    -0.10370806030380D+04

 The electronic state is 1-A'.
 Alpha  occ. eigenvalues -- -104.82861-104.82861 -11.31058 -11.31057 -11.25912
 Alpha  occ. eigenvalues --  -10.55343 -10.55343  -8.02017  -8.02017  -8.01844
 Alpha  occ. eigenvalues --   -8.01844  -8.01842  -8.01842  -1.15729  -1.12561
 Alpha  occ. eigenvalues --   -1.03007  -0.90084  -0.83645  -0.68903  -0.61693
 Alpha  occ. eigenvalues --   -0.61562  -0.59373  -0.53205  -0.52623  -0.51460
 Alpha  occ. eigenvalues --   -0.45220  -0.44365  -0.43882  -0.43069
 Alpha virt. eigenvalues --    0.11309   0.15975   0.16349   0.17208   0.17534
 Alpha virt. eigenvalues --    0.22273   0.22292   0.22485   0.30335   0.30857
 Alpha virt. eigenvalues --    0.33313   0.40898   0.40955   0.41477   0.43216

 Mulliken atomic charges:
              1
     1  C   -0.075266
     2  Cl  -0.218319
     3  C   -0.164316
     4  C   -0.075269
     5  Cl  -0.218314
     6  H    0.125287
     7  H    0.125287
     8  H    0.125172
     9  H    0.125172
    10  H    0.125283
    11  H    0.125283
 Sum of Mulliken atomic charges =   0.00000

 Dipole moment (field-independent basis, Debye):
    X=              0.0001    Y=             -2.1696    Z=              0.0000  Tot=              2.1696
 Quadrupole moment (field-independent basis, Debye-Ang):
   XX=            -58.2650   YY=            -43.3905   ZZ=            -44.2278
   XY=             -0.0006   XZ=              0.0000   YZ=              0.0000

 Normal termination of Gaussian 09 at Sun Feb 14 21:38:09 2016.
