 Gaussian 09, Revision A.01,
 Gaussian 09:  EM64L-G09RevA.01  8-May-2009

 -------------
 # mp2/cc-pVTZ
 -------------

 --------------------------------------
 1-3-dichloropropane-g+-g+_single_point
 --------------------------------------
 Symbolic Z-matrix:
 Charge =  0 Multiplicity = 1

                         Standard orientation:
 ---------------------------------------------------------------------
 Center     Atomic      Atomic             Coordinates (Angstroms)
 Number     Number       Type             X           Y           Z
 ---------------------------------------------------------------------
      1          6           0       -0.983904    0.438278    0.831410
      2         17           0       -2.121096   -0.535292   -0.209367
      3          6           0        0.000009    1.250947    0.000147
      4          6           0        0.984025    0.438617   -0.831313
      5         17           0        2.121028   -0.535409    0.209244
      6          1           0       -0.474032   -0.276502    1.478150
      7          1           0       -1.615042    1.090215    1.435963
      8          1           0       -0.554548    1.903190   -0.686624
      9          1           0        0.554494    1.903078    0.687079
     10          1           0        0.474237   -0.275888   -1.478420
     11          1           0        1.615264    1.090783   -1.435515
 ---------------------------------------------------------------------

 SCF Done:  E(RHF) =  -1036.18364660     A.U. after   11 cycles
 E2 =    -0.8996678002D+00 EUMP2 =    -0.10370833143971D+04

 The electronic state is 1-A.
 Alpha  occ. eigenvalues -- -104.82464-104.82464 -11.30456 -11.30455 -11.26180
 Alpha  occ. eigenvalues --  -10.54958 -10.54957  -8.01630  -8.01629  -8.01464
 Alpha  occ. eigenvalues --   -8.01464  -8.01461  -8.01460  -1.15592  -1.11687
 Alpha  occ. eigenvalues --   -1.02569  -0.91748  -0.81297  -0.66818  -0.66090
 Alpha  occ. eigenvalues --   -0.59686  -0.56886  -0.55847  -0.51861  -0.49997
 Alpha  occ. eigenvalues --   -0.44557  -0.44182  -0.43399  -0.43336
 Alpha virt. eigenvalues --    0.13055   0.14994   0.17707   0.18083   0.18473
 Alpha virt. eigenvalues --    0.19836   0.20815   0.23179   0.28386   0.31795
 Alpha virt. eigenvalues --    0.37556   0.39024   0.41229   0.42243   0.43159

 Mulliken atomic charges:
              1
     1  C   -0.074093
     2  Cl  -0.233072
     3  C   -0.182591
     4  C   -0.074093
     5  Cl  -0.233072
     6  H    0.141443
     7  H    0.139227
     8  H    0.117792
     9  H    0.117791
    10  H    0.141440
    11  H    0.139228
 Sum of Mulliken atomic charges =   0.00000

 Dipole moment (field-independent basis, Debye):
    X=              0.0003    Y=              2.5436    Z=              0.0003  Tot=              2.5436
 Quadrupole moment (field-independent basis, Debye-Ang):
   XX=            -53.0228   YY=            -43.9885   ZZ=            -42.3359
   XY=              0.0007   XZ=             -2.5561   YZ=             -0.0004

 Normal termination of Gaussian 09 at Sun Feb 14 21:44:01 2016.
