 Gaussian 09, Revision A.01,
 Gaussian 09:  EM64L-G09RevA.01  8-May-2009

 -------------
 # mp2/cc-pVTZ
 -------------

 ------------------------------------
 1-3-dichloropropane-a-g_single_point
 ------------------------------------
 Symbolic Z-matrix:
 Charge =  0 Multiplicity = 1

                         Standard orientation:
 ---------------------------------------------------------------------
 Center     Atomic      Atomic             Coordinates (Angstroms)
 Number     Number       Type             X           Y           Z
 ---------------------------------------------------------------------
      1          6           0       -1.386986    0.942626    0.207972
      2         17           0       -2.347192   -0.575419   -0.103661
      3          6           0        0.052394    0.838297   -0.285436
      4          6           0        0.869321   -0.206989    0.464993
      5         17           0        2.593237   -0.220990   -0.110213
      6          1           0       -1.440472    1.118204    1.284507
      7          1           0       -1.916274    1.743406   -0.309645
      8          1           0        0.064463    0.621065   -1.358185
      9          1           0        0.513903    1.824872   -0.149651
     10          1           0        0.905202    0.001102    1.536460
     11          1           0        0.482027   -1.213305    0.307195
 ---------------------------------------------------------------------

 SCF Done:  E(RHF) =  -1036.18289620     A.U. after   11 cycles
 E2 =    -0.8988975746D+00 EUMP2 =    -0.10370817937763D+04

 The electronic state is 1-A.
 Alpha  occ. eigenvalues -- -104.82952-104.82409 -11.31213 -11.30340 -11.26065
 Alpha  occ. eigenvalues --  -10.55444 -10.54897  -8.02116  -8.01948  -8.01945
 Alpha  occ. eigenvalues --   -8.01571  -8.01401  -8.01398  -1.15679  -1.12150
 Alpha  occ. eigenvalues --   -1.02775  -0.91073  -0.82478  -0.67414  -0.64479
 Alpha  occ. eigenvalues --   -0.61183  -0.57888  -0.54170  -0.52047  -0.50723
 Alpha  occ. eigenvalues --   -0.45230  -0.44295  -0.43698  -0.42957
 Alpha virt. eigenvalues --    0.12135   0.15655   0.16692   0.18269   0.18337
 Alpha virt. eigenvalues --    0.20351   0.21321   0.22385   0.29166   0.30960
 Alpha virt. eigenvalues --    0.36833   0.39571   0.40312   0.42450   0.43110

 Mulliken atomic charges:
              1
     1  C   -0.089015
     2  Cl  -0.226106
     3  C   -0.171580
     4  C   -0.063227
     5  Cl  -0.226832
     6  H    0.126426
     7  H    0.142387
     8  H    0.123956
     9  H    0.119166
    10  H    0.121126
    11  H    0.143700
 Sum of Mulliken atomic charges =   0.00000

 Dipole moment (field-independent basis, Debye):
    X=             -0.9217    Y=              1.9626    Z=              0.8934  Tot=              2.3452
 Quadrupole moment (field-independent basis, Debye-Ang):
   XX=            -55.6699   YY=            -43.0398   ZZ=            -44.0802
   XY=             -2.4352   XZ=              0.1187   YZ=              0.1234

 Normal termination of Gaussian 09 at Sun Feb 14 21:41:02 2016.
