 Gaussian 09, Revision A.01,
 Gaussian 09:  EM64L-G09RevA.01  8-May-2009

 -------------
 # mp2/cc-pVTZ
 -------------

 ----------------------------
 chloropropane-a_single_point
 ----------------------------
 Symbolic Z-matrix:
 Charge =  0 Multiplicity = 1

                         Standard orientation:
 ---------------------------------------------------------------------
 Center     Atomic      Atomic             Coordinates (Angstroms)
 Number     Number       Type             X           Y           Z
 ---------------------------------------------------------------------
      1          6           0       -0.069785    0.583589    0.000011
      2         17           0       -1.759420   -0.096226   -0.000004
      3          6           0        0.985349   -0.514924    0.000003
      4          6           0        2.403246    0.072999   -0.000009
      5          1           0        0.001707    1.214252    0.888717
      6          1           0        0.001744    1.214255   -0.888699
      7          1           0        0.841041   -1.151813    0.879879
      8          1           0        0.841022   -1.151838   -0.879832
      9          1           0        3.151024   -0.726315   -0.000014
     10          1           0        2.580352    0.693667   -0.885702
     11          1           0        2.580396    0.693645    0.885693
 ---------------------------------------------------------------------

 SCF Done:  E(RHF) =  -577.246340270     A.U. after   11 cycles
 E2 =    -0.7210302069D+00 EUMP2 =    -0.57796737047646D+03

 The electronic state is 1-A.
 Alpha  occ. eigenvalues -- -104.81499 -11.29435 -11.24014 -11.23010 -10.53995
 Alpha  occ. eigenvalues --   -8.00668  -8.00502  -8.00500  -1.12953  -1.04211
 Alpha  occ. eigenvalues --   -0.91234  -0.81804  -0.66054  -0.60125  -0.57595
 Alpha  occ. eigenvalues --   -0.57345  -0.51145  -0.49536  -0.49230  -0.42858
 Alpha  occ. eigenvalues --   -0.42704
 Alpha virt. eigenvalues --    0.12727   0.16975   0.17526   0.18201   0.19641
 Alpha virt. eigenvalues --    0.22522   0.22833   0.24378   0.29279   0.33102
 Alpha virt. eigenvalues --    0.36239   0.38495   0.41475   0.43362   0.43932

 Mulliken atomic charges:
              1
     1  C   -0.057137
     2  Cl  -0.238858
     3  C   -0.155177
     4  C   -0.294907
     5  H    0.121594
     6  H    0.121587
     7  H    0.106402
     8  H    0.106413
     9  H    0.108380
    10  H    0.090851
    11  H    0.090852
 Sum of Mulliken atomic charges =   0.00000

 Dipole moment (field-independent basis, Debye):
    X=              2.4117    Y=              0.6334    Z=              0.0000  Tot=              2.4935
 Quadrupole moment (field-independent basis, Debye-Ang):
   XX=            -36.4463   YY=            -32.7808   ZZ=            -32.8870
   XY=             -0.3079   XZ=              0.0000   YZ=              0.0000

 Normal termination of Gaussian 09 at Sun Feb 14 21:46:55 2016.
