 Gaussian 09, Revision A.01,
 Gaussian 09:  EM64L-G09RevA.01  8-May-2009

 -------------
 # mp2/cc-pVTZ
 -------------

 ----------------------------
 chloropropane-g_single_point
 ----------------------------
 Symbolic Z-matrix:
 Charge =  0 Multiplicity = 1

                         Standard orientation:
 ---------------------------------------------------------------------
 Center     Atomic      Atomic             Coordinates (Angstroms)
 Number     Number       Type             X           Y           Z
 ---------------------------------------------------------------------
      1          6           0        0.175529    0.886450    0.309035
      2         17           0        1.469033   -0.347260   -0.067391
      3          6           0       -1.155236    0.561997   -0.357564
      4          6           0       -1.823813   -0.720965    0.144068
      5          1           0        0.574235    1.842099   -0.034477
      6          1           0        0.090297    0.903618    1.397854
      7          1           0       -1.812932    1.422025   -0.164737
      8          1           0       -1.011449    0.517053   -1.443480
      9          1           0       -2.788679   -0.873197   -0.350147
     10          1           0       -1.199559   -1.596390   -0.057207
     11          1           0       -2.004366   -0.676685    1.224597
 ---------------------------------------------------------------------

 SCF Done:  E(RHF) =  -577.245792785     A.U. after   11 cycles
 E2 =    -0.7216346290D+00 EUMP2 =    -0.57796742741404D+03

 The electronic state is 1-A.
 Alpha  occ. eigenvalues -- -104.81457 -11.29539 -11.24138 -11.22168 -10.53955
 Alpha  occ. eigenvalues --   -8.00626  -8.00463  -8.00460  -1.12915  -1.03629
 Alpha  occ. eigenvalues --   -0.92039  -0.80697  -0.64454  -0.63039  -0.58432
 Alpha  occ. eigenvalues --   -0.53872  -0.51450  -0.50170  -0.48242  -0.42836
 Alpha  occ. eigenvalues --   -0.42752
 Alpha virt. eigenvalues --    0.13309   0.16275   0.17332   0.19137   0.20124
 Alpha virt. eigenvalues --    0.21451   0.22973   0.24160   0.29547   0.34628
 Alpha virt. eigenvalues --    0.37667   0.38852   0.39651   0.42617   0.44168

 Mulliken atomic charges:
              1
     1  C   -0.070525
     2  Cl  -0.241151
     3  C   -0.162684
     4  C   -0.284279
     5  H    0.135248
     6  H    0.121949
     7  H    0.098094
     8  H    0.105019
     9  H    0.101966
    10  H    0.111421
    11  H    0.084941
 Sum of Mulliken atomic charges =   0.00000

 Dipole moment (field-independent basis, Debye):
    X=             -1.8888    Y=              1.4418    Z=              0.3406  Tot=              2.4005
 Quadrupole moment (field-independent basis, Debye-Ang):
   XX=            -35.5322   YY=            -32.0914   ZZ=            -32.9703
   XY=              0.3674   XZ=              0.1597   YZ=              0.4813

 Normal termination of Gaussian 09 at Sun Feb 14 21:50:01 2016.
