 Gaussian 09, Revision A.01,
 Gaussian 09:  EM64L-G09RevA.01  8-May-2009

 -------------
 # mp2/cc-pVTZ
 -------------

 ----------------------------
 fluoropropane-g_single_point
 ----------------------------
 Symbolic Z-matrix:
 Charge =  0 Multiplicity = 1

                         Standard orientation:
 ---------------------------------------------------------------------
 Center     Atomic      Atomic             Coordinates (Angstroms)
 Number     Number       Type             X           Y           Z
 ---------------------------------------------------------------------
      1          6           0        0.794361    0.517837    0.303310
      2          9           0        1.421043   -0.654702   -0.171131
      3          6           0       -0.597389    0.647875   -0.289072
      4          6           0       -1.548303   -0.482466    0.119080
      5          1           0        1.437976    1.356341    0.016881
      6          1           0        0.766442    0.437574    1.396411
      7          1           0       -0.999053    1.617834    0.036050
      8          1           0       -0.509345    0.695661   -1.381556
      9          1           0       -2.536998   -0.343001   -0.329712
     10          1           0       -1.163822   -1.453904   -0.205295
     11          1           0       -1.676608   -0.517661    1.207488
 ---------------------------------------------------------------------

 SCF Done:  E(RHF) =  -217.196162696     A.U. after   11 cycles
 E2 =    -0.7817017129D+00 EUMP2 =    -0.21797786440838D+03

 The electronic state is 1-A.
 Alpha  occ. eigenvalues --  -26.26264 -11.30580 -11.23373 -11.21946  -1.56793
 Alpha  occ. eigenvalues --   -1.06349  -0.93517  -0.81793  -0.69078  -0.68556
 Alpha  occ. eigenvalues --   -0.64498  -0.59796  -0.56995  -0.54061  -0.49684
 Alpha  occ. eigenvalues --   -0.48517  -0.48339
 Alpha virt. eigenvalues --    0.13935   0.17010   0.17732   0.19933   0.21526
 Alpha virt. eigenvalues --    0.23270   0.23894   0.27317   0.30227   0.35777
 Alpha virt. eigenvalues --    0.38745   0.39233   0.42444   0.43754   0.50641

 Mulliken atomic charges:
              1
     1  C    0.177178
     2  F   -0.332645
     3  C   -0.171696
     4  C   -0.289422
     5  H    0.080143
     6  H    0.059645
     7  H    0.086781
     8  H    0.096185
     9  H    0.099548
    10  H    0.110156
    11  H    0.084128
 Sum of Mulliken atomic charges =   0.00000

 Dipole moment (field-independent basis, Debye):
    X=             -1.1624    Y=              1.6849    Z=              0.5575  Tot=              2.1215
 Quadrupole moment (field-independent basis, Debye-Ang):
   XX=            -27.4862   YY=            -25.5933   ZZ=            -24.7954
   XY=              2.0904   XZ=              0.8111   YZ=             -0.0036

 Normal termination of Gaussian 09 at Sun Feb 14 21:55:39 2016.
