 Gaussian 09, Revision A.01,
 Gaussian 09:  EM64L-G09RevA.01  8-May-2009

 -------------
 # mp2/cc-pVTZ
 -------------

 ----------------------------
 fluoropropane-a_single_point
 ----------------------------
 Symbolic Z-matrix:
 Charge =  0 Multiplicity = 1

                         Standard orientation:
 ---------------------------------------------------------------------
 Center     Atomic      Atomic             Coordinates (Angstroms)
 Number     Number       Type             X           Y           Z
 ---------------------------------------------------------------------
      1          6           0       -0.622612    0.492296   -0.000033
      2          9           0       -1.872823   -0.158284    0.000037
      3          6           0        0.499576   -0.530739   -0.000023
      4          6           0        1.880873    0.137641    0.000027
      5          1           0       -0.594837    1.127313    0.892992
      6          1           0       -0.594938    1.127124   -0.893178
      7          1           0        0.389198   -1.173736    0.881140
      8          1           0        0.389270   -1.173758   -0.881185
      9          1           0        2.675779   -0.614186   -0.000252
     10          1           0        2.021872    0.768523   -0.885204
     11          1           0        2.022037    0.768087    0.885535
 ---------------------------------------------------------------------

 SCF Done:  E(RHF) =  -217.196035973     A.U. after   11 cycles
 E2 =    -0.7814128504D+00 EUMP2 =    -0.21797744882310D+03

 The electronic state is 1-A.
 Alpha  occ. eigenvalues --  -26.26266 -11.30544 -11.23293 -11.22851  -1.56812
 Alpha  occ. eigenvalues --   -1.06714  -0.93284  -0.82510  -0.69635  -0.67281
 Alpha  occ. eigenvalues --   -0.65109  -0.61124  -0.56720  -0.52716  -0.51629
 Alpha  occ. eigenvalues --   -0.48513  -0.48354
 Alpha virt. eigenvalues --    0.13440   0.17108   0.17815   0.18182   0.22326
 Alpha virt. eigenvalues --    0.23024   0.24995   0.26692   0.33116   0.34960
 Alpha virt. eigenvalues --    0.37459   0.38946   0.41285   0.44283   0.49891

 Mulliken atomic charges:
              1
     1  C    0.191796
     2  F   -0.324554
     3  C   -0.173311
     4  C   -0.301144
     5  H    0.062670
     6  H    0.062680
     7  H    0.097560
     8  H    0.097559
     9  H    0.107610
    10  H    0.089561
    11  H    0.089575
 Sum of Mulliken atomic charges =   0.00000

 Dipole moment (field-independent basis, Debye):
    X=              2.1075    Y=              0.7421    Z=             -0.0001  Tot=              2.2344
 Quadrupole moment (field-independent basis, Debye-Ang):
   XX=            -30.3285   YY=            -24.8527   ZZ=            -24.6142
   XY=             -1.2946   XZ=              0.0001   YZ=              0.0001

 Normal termination of Gaussian 09 at Sun Feb 14 21:52:40 2016.
